<?xml version="1.0"?>
<VTKFile type="UnstructuredGrid"  version="0.1"  >
<UnstructuredGrid>
<Piece  NumberOfPoints="600" NumberOfCells="2587">
<Points>
<DataArray  type="Float64"  NumberOfComponents="3"  format="ascii">-0.049151 -0.007804 -0.004823  -0.049151 0.007804 0.004823  -0.04790259406976923 0.001239683006004082 -0.009956012925459262  -0.04793098230285929 6.363167544250274e-05 0.009851369209831233  -0.04805944391332882 -0.008322903244759101 0.004219375566196385  -0.04786680619860946 0.008218644343796168 -0.005945462783549257  -0.04663476580214215 -0.009365629347722821 0.01531220317822907  -0.046709 0.009379999999999999 -0.015177  -0.04590539205244906 -0.007752695598137089 -0.01463013133116827  -0.04582231596126762 -0.01680094137165972 -0.0002315168275560837  -0.045877 0.008153000000000001 0.014626  -0.045046 -0.002284 0.019122  -0.04486234845678985 0.001327104045859624 -0.01953096323341215  -0.044654 -0.01761 0.009686  -0.044654 0.01761 -0.009686  -0.042599 -0.02584 0.004195  -0.042599 -0.007804 -0.024988  -0.042599 0.007804 0.024988  -0.042599 0.02584 -0.004195  -0.0425336923786702 -0.02428929218027723 -0.004072171917105918  -0.042533 -0.022361 -0.01382  -0.042533 0.022361 0.01382  -0.04238682415244291 0.01675564369295764 -0.01788960117370473  -0.04155 -0.017955 0.018656  -0.041471 -0.008366 0.024717  -0.04136349319913134 0.00813871199233143 -0.02485949403158711  -0.03967714040186228 -0.0258983901572066 0.01303149475134728  -0.037441 -0.031264 -0.002905  -0.03732113954780657 -0.01701469825628496 -0.0265245919761908  -0.03685067242239624 0.01748384243867774 -0.02684562858407657  -0.009854336773279149 -0.01384408163627372 -0.01978777176686668  -0.036929 -0.02584 0.021645  -0.036929 -0.007804 0.032792  -0.036929 0.007804 -0.032792  -0.03698846704788515 0.02584 -0.02146198412952453  -0.03576810672064631 -0.03263414503927621 0.007086120583432476  -0.03621056860850631 -0.008537190203393101 -0.03184816671271234  -0.03559475745020937 0.03284606053254825 -0.007053441363397597  -0.033533 0.031693 -0.016478  -0.03292211493494396 -0.001214309522569032 -0.03619171940793735  -0.03243571805057109 0.001224408606282728 0.03662626850077524  -0.031997 -0.036987 -0.010397  -0.031997 -0.02584 -0.028433  -0.031997 0.02584 0.028433  -0.03204115485955803 0.03075729860277714 0.0203928210825896  -0.031997 0.036987 0.010397  -0.03243147332066496 -0.03379671736279824 0.01425268571375688  -0.031608 -0.015082 0.034486  -0.031608 0.0241 -0.028913  -0.02961963933615586 -0.03028066577125982 0.02435081068270409  -0.02886215033698943 -0.03973235697938131 0.009264896059601528  -0.028868 -0.009379999999999999 -0.039733  -0.028868 0.009379999999999999 0.039733  -0.028868 0.039733 -0.009379999999999999  -0.0272080048442554 0.007418556175778055 -0.03987973523180979  -0.026287 -0.022361 0.03618  -0.02627694603556986 0.02236304392813957 -0.03618330823781371  -0.026188 0.032821 -0.025135  -0.02414412446875224 0.03338165421810636 0.02640705597593888  -0.024919 0.03836 0.017476  -0.02412361216801523 -0.02596328311105493 -0.03402877891816361  -0.02439078629365199 0.03846394450892718 -0.01783535271592886  -0.02458938678007193 -0.001356917071046851 -0.04229337251769552  -0.024357 -0.038386 0.018192  -0.02457071597438821 0.00109259960201285 0.04233250386759371  -0.02423 -0.033463 -0.026306  -0.019776 -0.036987 0.027219  -0.019776 -0.007804 0.045255  -0.019776 0.007804 -0.045255  -0.019776 0.036987 -0.027219  -0.019735 -0.008592000000000001 -0.043984  -0.01978806461543882 0.04311702324963859 -0.01208253429178276  -0.01892862770841087 0.008530073841898399 0.04431172963675564  -0.017841 -0.039733 -0.024556  -0.017841 0.039733 0.024556  -0.017531 -0.033463 -0.031173  -0.017497 -0.043183 -0.015065  -0.01770933906190419 0.04346407488954426 0.01391630448492417  -0.01722982027578962 0.03261200382964681 0.03216146684480273  -0.017154 -0.046634 -0.005574  -0.017154 -0.02584 -0.039218  -0.017154 0.02584 0.039218  -0.017154 0.046634 0.005574  -0.016024 0.04109 -0.021666  -0.01494121952274096 5.494991148457967e-05 0.04679907238030961  -0.01512526514718975 -0.0317009568381934 0.03394818247529849  -0.01381587557992425 0.01754731437057834 -0.04344583277283987  -0.01401384807495315 0.03115837349202418 -0.03491509825450116  -0.01387721695689824 -0.01788937852926916 0.04331188078629762  -0.013957 -0.04654 0.004955  -0.01441440998521693 -0.01795873171202407 -0.04310501290094694  -0.01369 0.046634 -0.005087  -0.01009005588036551 -0.04655470403191454 -0.01081058661137365  -0.010602 -0.046634 0.014592  -0.010602 0.007804 0.048236  -0.010602 0.046634 -0.014592  -0.010524 -0.00791 -0.04821  -0.009887999999999999 -0.03836 0.028786  -0.009261790657046021 -0.008539116438300484 0.04731318536605013  -0.009887999999999999 0.03836 -0.028786  -0.009771999999999999 -0.030735 -0.036718  -0.009185581067571447 -0.02585217748927433 0.04179506046613823  -0.009174 0.02584 -0.041811  -0.009108 0.008654 -0.047336  -0.008921 -0.043183 -0.021296  -0.008937075752852673 0.04310480187608008 0.02141776686200119  -0.008577 0.048317 0.002787  -0.008299406214355463 0.03823942999888234 0.02941739850850579  -0.008463174279235021 0.0312599477088679 0.03656675890254371  -0.004783583210573968 0.03242585507318451 -0.03636965250607311  -0.005301 -0.043183 0.022472  -0.005301 -0.015082 -0.046479  -0.005301 0.048317 -0.007296  -0.005211 -0.000665 0.048668  -0.004439314452187551 0.04275226375062801 -0.02342997776998131  -0.004364152694500316 -0.01681945334952561 0.04576367687154725  -0.004831654088850597 0.01806404578336494 -0.04525963097092563  0.0007022698444801325 -0.04663540093736477 0.014444250464636  0 -0.05 0  0 -0.046634 -0.018036  0 -0.039733 0.030353  0 -0.036987 -0.033644  3.125325765250436e-06 -0.02245740950567151 -0.04464746425536401  0 -0.009379999999999999 0.049112  8.325710264163455e-05 -0.008148269180658354 -0.04815287118430898  -1.867729409312596e-05 0.009229289177948156 -0.04910428056285188  0 0.022361 0.044721  0 0.036987 0.033644  -0.001218025573793352 0.04653770829286376 -0.01481187277953063  0 0.046634 0.018036  0 0.05 0  0.00016 0.039693 -0.030345  -0.0008018054486786524 0.008158689946443008 0.04815074925823663  0.003657154072143134 0.03372747038535494 -0.03530604672821342  0.004587 0.01761 -0.045461  0.005452665192909564 -0.04306588633302541 0.02260952214587862  0.005005204357090245 0.0008181317909628782 -0.048675536048003  0.005301 0.043183 -0.022472  0.005356737186059587 -0.0177743034181618 0.04523896415525235  0.004604139298720805 -0.001630259667997099 0.04871740803644251  0.005934 -0.048143 0.007778  0.008325373550506426 -0.03154382128886014 -0.03637482269702176  0.008418946271403974 0.03163034608668942 0.03626181934309521  0.009526490850063286 -0.04299130408349978 -0.02139731883443462  0.008921 0.043183 0.021296  0.007390093158185135 0.04652853192103715 0.01290636599637836  0.009258243160547136 -0.02592657349427958 0.04169671787997016  0.009174 0.02584 -0.041811  0.01026718864631555 -0.03835289042056216 0.02858588547782126  0.009340873701426543 -0.008635601893535183 0.04729068077504547  0.009463904584300409 0.008625797247933989 -0.04726669174367604  0.009887999999999999 0.03836 -0.028786  0.010205 0.038558 0.028446  0.010602 -0.046634 0.014592  0.010602 -0.007804 -0.048236  0.010602 0.007804 0.048236  0.010602 0.046634 -0.014592  0.01414677769719092 0.0318539497135082 -0.0341630215081841  0.013603 0.046634 -0.005355  0.01391051592501494 -0.04668741774661421 0.003573146715528378  0.01422484107797216 -0.01720313510422107 -0.04341353717834465  0.01485224578135476 -0.01633235231710342 0.04353414016723415  0.0144968589055904 -0.03131222079577271 0.03458837952923594  0.014528 0.016731 -0.04355  0.014922 8e-06 -0.046798  0.015189 -0.041811 0.020905  0.017154 -0.046634 -0.005574  0.017154 -0.02584 -0.039218  0.01705876107071777 0.02582067905596933 0.03924855818274277  0.017154 0.046634 0.005574  0.01738746518387923 0.04333175481357129 0.01472441488755569  0.01761304203742924 -0.04317985484577645 -0.01489273207995775  0.01749630283838834 0.03277287993668752 0.03190190055911094  0.01749060704344387 -0.03247092055286038 -0.03221369942065879  0.01709808427851989 -0.02422851020983817 0.03920297974189902  0.017841 -0.039733 -0.024556  0.017841 0.039733 0.024556  0.019081 0.008701 0.044232  0.019776 -0.036987 0.027219  0.019776 -0.007804 0.045255  0.019776 0.007804 -0.045255  0.019776 0.036987 -0.027219  0.01984457145726764 0.02343263912858476 -0.03840346129995038  0.020757 -0.008441000000000001 -0.043527  0.021255 0.042603 -0.011565  0.02326500512967002 -0.03449493766125505 -0.02585072328517351  0.02311561260340114 -0.04308314437441599 0.001894828765536271  0.02342033427345287 0.0429172488223377 -0.002607221098998199  0.023032 0.015738 -0.040431  0.02393314295168048 0.02780495823288194 -0.03274152810400158  0.02391781571702157 -0.0004850960474568912 0.04270695868223139  0.02444650634997888 0.03845486278270692 -0.01787816461116968  0.02407816744596627 -0.0420757835121373 -0.007993899359976088  0.0245169098150132 -0.03825302755043918 0.01820190045268769  0.02397081128374749 0.03344144744628375 0.02651667316646513  0.02473617762546164 0.03848962882748188 0.01738723612331032  0.026287 -0.022361 0.03618  0.026287 0.022361 -0.03618  0.028868 -0.039733 0.009379999999999999  0.028868 -0.009379999999999999 -0.039733  0.028868 0.009379999999999999 0.039733  0.028868 0.039733 -0.009379999999999999  0.03016272807208971 -0.01750825197137169 -0.03433427889389375  0.030433 -0.03836 -0.000508  0.03024301398342013 0.01765850847321108 0.03419443578158489  0.030433 0.03836 0.000508  0.03110964385069723 -0.02964592189950172 0.0234946851528421  0.031608 -0.0241 0.028913  0.031997 -0.036987 -0.010397  0.03187333779920321 -0.03140879529697282 -0.01958590477441702  0.031997 -0.02584 -0.028433  0.03174617131418277 0.03099621955035622 0.02041782496596811  0.03199675358399435 0.03698721632300239 0.01039544193869576  0.032015 0.025834 0.028408  0.03336730784915034 -0.03197213564945888 0.01623494159345271  0.032899 -0.000
[...]
<PointData  Vectors="Displacement"> 
<DataArray  type="Float64"  Name="Displacement"  NumberOfComponents="3" format="ascii">2.2887674033809221e-03 8.9031870557942667e-03 3.6926531468674932e-03  3.4921726249588884e-03 1.0191573478621272e-02 1.2574228549710007e-03  2.2218337610781071e-03 7.6543278476512390e-03 2.2055492870949548e-03  3.5910054054023670e-03 1.1203603920112826e-02 2.3793484599140785e-03  2.8500032355130538e-03 1.0507953542909889e-02 3.7242485470705250e-03  2.7412775094493779e-03 8.1931624967685607e-03 1.1346514770705157e-03  3.6660005003214756e-03 1.2397293816362332e-02 3.8291750183807581e-03  2.1262124163184343e-03 6.4439612372342355e-03 9.0783776426851012e-04  1.6826718624212264e-03 6.9780313147371790e-03 3.4275921396491665e-03  2.3660031117915810e-03 9.9172717080336249e-03 4.9234068389873925e-03  4.2264887791947170e-03 1.1757099916142905e-02 9.4885718934697289e-04  4.1986769661960851e-03 1.2797553756724100e-02 2.5684656091817027e-03  1.6202456447000236e-03 5.7716339920069488e-03 1.9787644033299550e-03  2.9893678721512867e-03 1.1613626931960329e-02 4.9897803159259253e-03  2.7548770979711691e-03 7.1304122441308493e-03 -4.8889610098682779e-04  2.4291710690263015e-03 1.0925770667362248e-02 6.1598249946608133e-03  1.0714634962035270e-03 4.9011206879162137e-03 3.1390961010828644e-03  4.9999275267506894e-03 1.3410891624116609e-02 7.4045665505902657e-04  3.4849817758087279e-03 7.7757841611901454e-03 -1.9940499941374134e-03  1.9877619562133136e-03 9.4640856934992551e-03 5.8856467102026862e-03  1.3604699536753514e-03 7.5334871497778249e-03 5.4748608086224813e-03  4.7631037071149494e-03 1.1092375625192248e-02 -1.5737294671694445e-03  2.1158164316727123e-03 5.6057381214510132e-03 -4.6092260869239629e-04  3.5887744003745402e-03 1.2988115379081259e-02 4.9011877675463342e-03  4.3980445825286723e-03 1.3747319210801225e-02 3.3320992562578399e-03  1.4088417307023381e-03 4.5079438431529281e-03 7.8954450515561166e-04  2.9401376238387114e-03 1.2299383131064424e-02 6.0639246460530141e-03  1.9976889093282668e-03 1.0026811979407123e-02 6.7133275827174922e-03  8.1674964509206882e-04 4.7485526952792409e-03 4.1362851592630853e-03  1.5056434773268932e-03 3.6789988076411390e-03 -7.9834791002254097e-04  1.3527448914084112e-03 4.7196423055335069e-03 1.5344588256108545e-03  3.5545821132656986e-03 1.3601926205437577e-02 5.9425333384620881e-03  5.0099780566738375e-03 1.4849090229133435e-02 2.9481465834208880e-03  8.8496655264858515e-04 2.8824850820345777e-03 5.9025216876165416e-04  2.1212200822536948e-03 4.4602383129856869e-03 -2.1644578084112184e-03  2.5440699870252813e-03 1.1804672197706407e-02 6.8385277292773777e-03  7.1213609927305065e-04 3.3873499118933772e-03 2.7177891426713534e-03  3.5747082726467266e-03 6.6423664660792007e-03 -3.5880491737580434e-03  2.7593058263271505e-03 4.8760329356928953e-03 -3.4141346774792286e-03  5.8017970296634063e-04 2.2319404236667748e-03 1.4244560353000610e-03  5.6637277390888582e-03 1.5049113812469078e-02 1.1601149496159532e-03  1.5212393354254352e-03 9.0206667233929012e-03 7.3060725080412977e-03  5.5947912829384136e-04 4.5119935329283557e-03 5.1246882086746727e-03  6.1062133780098770e-03 1.3029232584107717e-02 -3.0547458305835496e-03  5.7391954438081576e-03 1.1405898959900027e-02 -3.8254239067749855e-03  5.3196870804538927e-03 9.3111668695443732e-03 -4.7745579004259929e-03  2.9327500779420569e-03 1.2866193641164855e-02 6.8654776743579029e-03  4.8718660092050654e-03 1.5038174224977998e-02 3.8397823807472579e-03  1.5137080737949520e-03 3.0248299572237726e-03 -2.0198113597731200e-03  3.6542753640346967e-03 1.3877973867622947e-02 6.2239267567009452e-03  2.8326343748043981e-03 1.3132470076795874e-02 7.3635567333823438e-03  4.0890408707669424e-04 1.6298282443936755e-03 1.8751350438273415e-03  6.2163429198218417e-03 1.5204427866433719e-02 -4.5899812230298790e-04  3.7779258886804809e-03 5.2567987043945739e-03 -5.2362127954147155e-03  4.5914953260603811e-04 1.2092784001030527e-03 1.5565639871085139e-04  4.7592569329413933e-03 1.5223701273334321e-02 4.7004159167600302e-03  8.6728218958946558e-04 1.6699544527168189e-03 -1.8830072378872261e-03  2.1749657465626217e-03 3.0736047062893688e-03 -3.9064956756575363e-03  6.3474555183315714e-03 1.1991506282422782e-02 -4.9218155744539709e-03  5.9228839383045481e-03 1.0105561624264991e-02 -5.6718549278884194e-03  3.8246627482351175e-04 3.2455783024703281e-03 4.1951646962976206e-03  3.0736690537830958e-03 3.6504864245185454e-03 -5.1236650960119322e-03  2.8122703434900980e-04 7.1521715343408421e-04 7.0559149992622259e-04  3.2170722706815705e-03 1.3527021504985560e-02 7.1354868967674102e-03  6.1055820482561231e-03 1.5602158150105575e-02 6.8057782851135048e-04  4.8872459507315216e-04 5.0983811881576595e-03 5.8231185336310460e-03  3.7143530497831139e-03 1.4142958016982763e-02 6.6819145253201326e-03  5.9783759132895362e-03 1.6005486949672548e-02 1.8518828507887246e-03  0.0000000000000000e+00 0.0000000000000000e+00 0.0000000000000000e+00  2.3140744328264060e-03 2.2473577770246028e-03 -4.9086262668175326e-03  0.0000000000000000e+00 0.0000000000000000e+00 0.0000000000000000e+00  3.8553062246400407e-03 3.5928918599438258e-03 -6.4849805542151985e-03  6.5600826754887943e-03 1.5490478665611230e-02 -9.4940477730605507e-04  3.4937946983376210e-04 5.9836820063011087e-03 6.6366627693927828e-03  6.5566277131734732e-03 1.1043618119674258e-02 -6.6161338108670720e-03  2.4510476231801958e-04 4.0908955556780650e-03 5.1999287325594657e-03  1.2129388967801985e-03 9.1634596065221664e-03 7.6480499204247864e-03  6.0360547559636371e-03 8.2719363891324560e-03 -7.2447164312077119e-03  6.7106011648819198e-03 1.2676969051645963e-02 -5.2542768333943063e-03  1.9254411905898505e-03 1.2187819336688114e-02 8.1044486601512932e-03  2.3820910652369364e-04 1.9665149412003116e-03 3.1817419819232151e-03  6.8835655585726876e-03 1.4148858537585771e-02 -4.0970707609475814e-03  5.6931815813297234e-03 5.4517684224379198e-03 -8.0019818899651051e-03  3.0243658099631376e-03 2.3265319687814849e-03 -6.0450355164076005e-03  6.4076819665947419e-03 1.5850620307944416e-02 2.2371786079545107e-04  4.3379772750522108e-03 1.4516888805630212e-02 5.5598073865886491e-03  0.0000000000000000e+00 0.0000000000000000e+00 0.0000000000000000e+00  1.5803428007344648e-03 1.1583254660980516e-03 -3.8338003605281560e-03  5.4564921696358144e-03 1.5554060536898111e-02 3.1709241025836862e-03  2.5632569984304046e-03 1.2908011771387770e-02 7.4525359609021831e-03  0.0000000000000000e+00 0.0000000000000000e+00 0.0000000000000000e+00  4.7950594190568812e-03 3.3540601606857042e-03 -7.6746970091865034e-03  7.8705455306291733e-04 9.0347955013205649e-03 7.5652531606648305e-03  2.6353872986423234e-03 1.3012736396808262e-02 7.4225710911407792e-03  6.8325300155365615e-03 1.5694746162108926e-02 -1.3632713938648699e-03  3.9639328080307941e-03 1.4611791789337400e-03 -7.4348935817897697e-03  0.0000000000000000e+00 0.0000000000000000e+00 0.0000000000000000e+00  3.7277562595077014e-03 1.3684450799939013e-02 6.2444598224780353e-03  6.1313476755545564e-03 1.5769617945713871e-02 1.3330915154787923e-03  2.5283938426711250e-03 1.3878626887128638e-03 -5.6510566760505435e-03  1.4791012245055624e-04 2.5674429011002245e-03 3.9529967488688943e-03  5.0907983298234954e-03 1.5221020025509482e-02 4.1773070685973109e-03  7.2020275077143176e-04 3.3398933436090190e-04 -2.6821256604537312e-03  0.0000000000000000e+00 0.0000000000000000e+00 0.0000000000000000e+00  2.8555846229537900e-04 6.5604943298728964e-03 6.7050313263420950e-03  6.4230455907572804e-03 9.5597791797124455e-03 -7.8605118032245916e-03  5.3315832934176357e-03 3.1528763464011332e-03 -8.9071860638807801e-03  6.7088672803366526e-03 1.1507938595254629e-02 -6.9274508561613735e-03  6.9585100814941849e-03 1.3062619799714155e-02 -5.5339664576944643e-03  1.7527722919819585e-03 5.8744149491563209e-04 -4.5032645582716024e-03  3.1003316075058377e-03 1.2691585771288347e-02 6.7092769859140502e-03  0.0000000000000000e+00 0.0000000000000000e+00 0.0000000000000000e+00  4.8227885410008749e-03 2.1456936923789282e-04 -8.2792958464219038e-03  6.5442583741654381e-03 1.5607901926785930e-02 -2.3594169829151520e-04  3.3573686122336716e-03 1.2325670045047797e-03 -6.9642957868889382e-03  5.7024155975587592e-03 1.5397351949394542e-02 2.4199466477319515e-03  0.0000000000000000e+00 0.0000000000000000e+00 0.0000000000000000e+00  2.2803761136534284e-03 1.1359256521862742e-02 6.7836541264350075e-03  9.3333458152522833e-04 9.6320990499324834e-03 7.3518740752100487e-03  -4.7945140122378743e-05 6.8432739549922862e-03 6.8780960387101195e-03  3.7408821927057364e-03 1.3255781267551565e-02 5.8289443844248522e-03  -1.7867637670050221e-04 3.0044072509099184e-03 4.8045012354601289e-03  0.0000000000000000e+00 0.0000000000000000e+00 0.0000000000000000e+00  6.2424354452275876e-03 1.5525671117573817e-02 9.0004983470734707e-04  0.0000000000000000e+00 0.0000000000000000e+00 0.0000000000000000e+00  0.0000000000000000e+00 0.0000000000000000e+00 0.0000000000000000e+00  7.1773441131128060e-03 1.4240498246285697e-02 -4.4331278115407194e-03  6.9385096781112467e-03 1.1924518499812574e-02 -7.0515155279376827e-03  4.1702844649310379e-03 -1.3140307637284600e-04 -7.8475539488264134e-03  6.0462887401399488e-03 7.5810631801399801e-03 -9.4304662973806394e-03  4.8509357971337694e-03 2.4121880463524974e-03 -9.6848114894192497e-03  2.8312794612261371e-03 7.4903608040166635e-04 -6.3210654768564621e-03  6.8697784481981227e-03 1.5123079582715240e-02 -1.9563255234195825e-03  2.1512071597688917e-03 3.7585548974433805e-04 -5.1724262434806444e-03  0.0000000000000000e+00 0.0000000000000000e+00 0.0000000000000000e+00  2.9480217196773233e-03 1.1869215601000668e-02 6.0433608858529702e-03  0.0000000000000000e+00 0.0000000000000000e+00 0.0000000000000000e+00  3.7143579638810186e-03 1.4791043719915953e-03 -7.4317552147490596e-03  5.6508139849679902e-03 1.4720754522710711e-02 2.0017392386572899e-03  6.5313116875716018e-03 1.5059992622424011e-02 -6.3686936376279157e-04  1.5017893802137326e-03 1.0125999223347835e-02 6.7729489503013489e-03  -2.0468159164471904e-04 1.7732261535698206e-03 3.4618007999432329e-03  6.9552495804613441e-03 1.2121043717155581e-02 -6.4051998140280406e-03  -1.0131737370903070e-04 5.0453898994631142e-03 5.7053381034301506e-03  6.3696192414926349e-03 8.8963850641964898e-03 -8.4589676701688783e-03  5.9423753364344634e-03 7.0772512626719871e-03 -8.9790320595443812e-03  5.0669444701828652e-03 1.4056433555540744e-02 3.0843185708875581e-03  1.2756468850787074e-03 -1.3125036652234941e-04 -3.2136258185162555e-03  3.6206138543225705e-03 1.2243703956377364e-02 5.0444731842966923e-03  6.1606246126558869e-03 1.4646565777099638e-02 2.6011970907274410e-04  0.0000000000000000e+00 0.0000000000000000e+00 0.0000000000000000e+00  3.1508718284894662e-03 7.7888933467946606e-04 -6.5879283845034619e-03  6.6572264619378608e-03 1.0415419478997007e-02 -7.6499825462338000e-03  2.0556274808675710e-03 1.0609950279986190e-02 6.2715045721609772e-03  0.0000000000000000e+00 0.0000000000000000e+00 0.0000000000000000e+00  6.8873003847185286e-03 1.4476745772693211e-02 -2.5300182823958157e-03  4.4706685115841714e-03 2.2527639247234689e-03 -8.2989489512519093e-03  2.4556847361590496e-03 2.6424997084596941e-04 -5.3447302294144204e-03  4.9631334137719176e-03 3.6823207478930398e-03 -8.6163564582603970e-03  1.0999104513032642e-03 9.0839152308844710e-03 6.0944765914872790e-03  0.0000000000000000e+00 0.0000000000000000e+00 0.0000000000000000e+00  5.6045526680681274e-03 1.3815598478865428e-02 1.2357123486341226e-03  4.3681866956889522e-03 1.2720049198074072e-02 3.6689664956687951e-03  0.0000000000000000e+00 0.0000000000000000e+00 0.0000000000000000e+00  0.0000000000000000e+00 0.0000000000000000e+00 0.0000000000000000e+00  2.8302187876781486e-03 1.0909203370126129e-02 5.2846565966325294e-03  2.6761680056531969e-04 7.7021524161006204e-03 5.9971931307421771e-03  -9.2484174616540117e-05 7.6605501501340564e-04 2.3380057207809152e-03  6.9862368546458097e-03 1.2306641719385763e-02 -5.8312731305314594e-03  5.5672175040072085e-03 5.7477733073713387e-03 -8.9355017220119747e-03  6.0098691070759741e-03 7.4465470990548507e-03 -8.5611367831263524e-03  9.6043038236359054e-05 5.8503806728101137e-03 5.3632511925866041e-03  6.7643865950737583e-03 1.0878213323793195e-02 -6.9426162512510794e-03  -3.7581824716841339e-05 1.9964351207450407e-03 3.4189480069967745e-03  4.9918282142590691e-03 1.3143597940293700e-02 2.3734489113512954e-03  -1.2123315724443062e-04 3.6392699537787037e-03 4.7139028039888042e-03  6.5042870138390003e-03 9.3860669381912714e-03 -8.0963983353023444e-03  6.6859997071815310e-03 1.3318652994245868e-02 -3.0817742120119737e-03  3.5664446099414457e-03 1.1336575705891833e-02 4.2794253394469297e-03  6.0737769284139225e-03 1.3676043979457193e-02 -4.4362955442264746e-04  0.0000000000000000e+00 0.0000000000000000e+00 0.0000000000000000e+00  3.3437336104202584e-03 9.5217544931608703e-04 -6.6410295303114637e-03  1.8478168689981549e-03 -2.7301629612969920e-05 -3.5866546804197144e-03  0.0000000000000000e+00 0.0000000000000000e+00 0.0000000000000000e+00  4.6280393150073497e-03 2.9878962146792378e-03 -8.0589146839083869e-03  1.1701215915264433e-04 2.8691462280426858e-03 3.6176292603680299e-03  1.2417101073212390e-03 7.7882484428606130e-03 5.1028074663908088e-03  5.1194228637491315e-03 4.3386673727759976e-03 -8.3673584706331228e-03  1.3493461309488845e-03 -1.1727674104411581e-04 -2.0555510319519780e-03  2.6167917933579885e-03 3.3986791497510598e-04 -5.0822608101507866e-03  6.2278995530360842e-03 1.2912256811279232e-02 -1.8164162194336266e-03  4.1549194983599436e-03 2.0676502277402631e-03 -7.3275650018063427e-03  7.4354896221088553e-04 6.1878321362255958e-03 4.9524687923685941e-03  2.8153776933545673e-03 9.7159163191875876e-03 4.2628918982530713e-03  6.4898843068611854e-03 9.5982888920286176e-03 -7.2866806494111857e-03  6.1067680912315920e-03 7.8444078718131211e-03 -8.0468886386516301e-03  4.9015360849425683e-03 1.2070343334834518e-02 1.5863830199277253e-03  2.1303474475573951e-03 -5.1152365043718731e-05 -4.1231712385024714e-03  2.0283050014075913e-03 8.1752193552923937e-03 4.2413046014429315e-03  4.0799740243892789e-04 -5.5884880836639605e-05 -5.1024267524133490e-04  6.4567556416097651e-03 1.1987520394158194e-02 -3.6723747728595563e-03  4.7255937897800124e-03 3.2149870082992501e-03 -7.9146055327653734e-03  4.5983860477891939e-04 6.7342064043663752e-04 6.1546134198108698e-04  1.5079395148884780e-03 6.4644201398736658e-03 4.0163227594854104e-03  6.4407468421814554e-03 1.0843651259031951e-02 -5.0338886491650249e-03  5.2229107662877397e-03 4.7881440543267985e-03 -7.9431630748901475e-03  3.6854571540470139e-03 9.8553179243518127e-03 2.5262221881073620e-03  4.3160232153784586e-03 1.0585741003013696e-02 1.5989708477869497e-03  9.2915030658485961e-04 4.6656789409024032e-03 3.7433937270719294e-03  7.2797666035002648e-04 3.0485820347582043e-03 2.8393556501766170e-03  4.2899307566986134e-04 1.5436376748622705e-03 1.8985626866711912e-03  6.0845632389131847e-03 8.2278234569313682e-03 -7.1304988246099826e-03  5.7231373577958855e-03 6.4071783734016884e-03 -7.9473431981478045e-03  6.3840706891276000e-03 9.6606303164098080e-03 -6.4105870424143218e-03  3.0397627148378986e-03 8.6085084749473271e-03 2.7751035380990953e-03  1.1379346373467292e-03 -1.2022232890732526e-04 -1.5040187519947304e-03  5.8952060075744732e-03 1.1260809668238997e-02 -2.4977059414372088e-03  9.7296134315880112e-04 2.9325777875375343e-04 -7.1100990091573358e-04  4.6405557428571007e-03 3.4351621928249147e-03 -7.1525457220178315e-03  2.3273034817147273e-03 7.0457425839498163e-03 2.9170883856670239e-03  2.7497087811797216e-03 2.0334443636520379e-03 -2.7931223529230899e-03  2.6016048866956219e-03 5.1928874169497835e-04 -4.2530297414122694e-03  3.7293857890471115e-03 9.0950489363446768e-03 1.6173025673040162e-03  4.5287835492958135e-03 9.8394556896809291e-03 2.0900911509074297e-04  5.3088209920302372e-03 1.0624747979887508e-02 -1.2878968990209336e-03  1.8525935528275128e-03 1.1647458886138237e-05 -2.9269881982866178e-03  3.4924586224241204e-03 1.2733752820578439e-03 -5.8153539492527785e-03  9.6661907092732439e-04 1.3118135262704424e-03 5.4433716149254882e-04  1.2898263600183840e-03 3.8467731843661516e-03 2.3374316786277266e-03  2.9483567976800874e-03 8.3905258606866806e-04 -4.7937485963208985e-03  1.0473206915613770e-03 2.2711004090633920e-03 1.4164553321620050e-03  5.8642353985840934e-03 8.0030560258265021e-03 -6.2613816046116011e-03  5.9793149911995837e-03 9.2534312467029822e-03 -5.1151447179256480e-03  1.7090644671676166e-03 5.2793525189966115e-03 2.6787289454686704e-03  2.3483870452437670e-03 3.8372138601551156e-04 -3.7404441498223606e-03  3.9753738135781111e-03 2.3387394985138377e-03 -6.0751995210265933e-03  3.3963528501270166e-03 1.6240487804291745e-03 -4.9869388202576507e-03  2.5065263640126497e-03 8.5366174809795102e-04 -3.4770624499020791e-03  3.0894873839409070e-03 9.3784859461229914e-03 2.8083059180743224e-03  1.5773074236310745e-03 3.0261024574210374e-03 9.4910624321180759e-04  5.4489455005081542e-03 6.7138805556567994e-03 -6.1115655572344108e-03  5.4835258906944292e-03 7.7271216516480142e-03 -5.0501692725102819e-03  2.5658105608541175e-03 5.9495052213052301e-03 1.4065732411910380e-03  1.6174521860158593e-03 9.9882148456000215e-04 -1.1961519812518201e-03  5.5238226269563743e-03 8.7512360115915549e-03 -3.9638282277856601e-03  4.5826867842382948e-03 3.7362762207450943e-03 -6.4087703578524459e-03  2.1266391314528036e-03 4.5674126160821045e-03 1.1906592735196390e-03  3.4019531013909305e-03 6.5368805011878526e-03 5.1471313313423475e-06  2.1771624167434955e-03 2.1016601865037855e-03 -1.3716865788629591e-03  2.8115496497649463e-03 4.8737086940930652e-03 -1.4577459910936286e-04  4.9182630702724146e-03 6.9135215786865715e-03 -4.0285876032791733e-03  4.1304877528964678e-03 7.1586896358040971e-03 -1.4073292211574297e-03  3.1730655152484061e-03 2.0008940515056656e-03 -3.9841344640504425e-03  4.2461367586888853e-03 6.1297113656094910e-03 -2.8012403893350481e-03  3.3562311410513922e-03 4.8523033296176020e-03 -1.5940724229474785e-03  2.9469092167901867e-03 3.7687479259925047e-03 -1.6243325276676288e-03  4.3130787638730626e-03 5.0908196087360710e-03 -4.0796464118482327e-03  2.5459377744371211e-03 4.6850239942591246e-03 -2.7388201311404677e-03  5.8310007139910349e-03 1.1850338161625680e-02 -3.2014486366416252e-03  5.0108370596007386e-04 1.1806891919167821e-03 2.0779187123286184e-04  4.5630639145593996e-03 7.5482197444692043e-03 -2.1443492230702266e-03  3.4395578450714778e-03 1.1359337913443930e-02 4.2107496956308868e-03  5.8306629512516013e-03 1.2750033936899165e-02 -7.1825838593033396e-04  2.5522830807047894e-03 9.3628744804830511e-03 3.0455819588655719e-03  2.2701523410652486e-03 7.8446908880500515e-03 2.1600757854478942e-03  3.0359547151310074e-03 8.7171411186493242e-03 7.5609824690301645e-04  3.5580123832949125e-03 1.0406936619711529e-02 1.3585722172714549e-03  6.0389493499479567e-04 1.0607228508840143e-03 -1.0877719593092481e-04  8.4680947029347616e-04 6.9875438729302480e-04 -1.2310008543329633e-04  1.8617391204953685e-03 5.3932769449441280e-03 2.4096698120553125e-03  1.3344785867313192e-03 6.3125436220528549e-03 3.6644780767359120e-03  4.0519609639405570e-03 3.4791700133735754e-03 -4.5893266622298234e-03  4.6131899570769023e-03 1.3590460377481697e-02 2.6188540240030546e-03  4.5716049309658400e-03 1.3983810426123266e-02 3.6450734338799229e-03  2.7313364944931244e-03 8.2929294265728475e-03 1.2804204217242224e-03  3.3541280786873596e-03 1.0823579771932653e-02 2.5050856913370672e-03  4.0014892329733841e-03 7.1453474433219822e-03 -9.7226122695873477e-04  5.5693988583363115e-03 1.3192959645010233e-02 -1.1527546901117017e-03  1.2684964205517246e-03 -5.8137259336085520e-05 -1.7297396935801825e-03  4.4686046928811701e-03 4.4285919749313986e-03 -5.2418923574730058e-03  3.5087814161402302e-03 8.9899815588512927e-03 -3.5818809787705505e-04  6.8619995370226023e-03 1.4944468925113493e-02 -2.670148277556