<?xml version="1.0"?>
<VTKFile type="UnstructuredGrid"  version="0.1"  >
<UnstructuredGrid>
<Piece  NumberOfPoints="600" NumberOfCells="2587">
<Points>
<DataArray  type="Float64"  NumberOfComponents="3"  format="ascii">-0.049151 -0.007804 -0.004823  -0.049151 0.007804 0.004823  -0.04790259406976923 0.001239683006004082 -0.009956012925459262  -0.04793098230285929 6.363167544250274e-05 0.009851369209831233  -0.04805944391332882 -0.008322903244759101 0.004219375566196385  -0.04786680619860946 0.008218644343796168 -0.005945462783549257  -0.04663476580214215 -0.009365629347722821 0.01531220317822907  -0.046709 0.009379999999999999 -0.015177  -0.04590539205244906 -0.007752695598137089 -0.01463013133116827  -0.04582231596126762 -0.01680094137165972 -0.0002315168275560837  -0.045877 0.008153000000000001 0.014626  -0.045046 -0.002284 0.019122  -0.04486234845678985 0.001327104045859624 -0.01953096323341215  -0.044654 -0.01761 0.009686  -0.044654 0.01761 -0.009686  -0.042599 -0.02584 0.004195  -0.042599 -0.007804 -0.024988  -0.042599 0.007804 0.024988  -0.042599 0.02584 -0.004195  -0.0425336923786702 -0.02428929218027723 -0.004072171917105918  -0.042533 -0.022361 -0.01382  -0.042533 0.022361 0.01382  -0.04238682415244291 0.01675564369295764 -0.01788960117370473  -0.04155 -0.017955 0.018656  -0.041471 -0.008366 0.024717  -0.04136349319913134 0.00813871199233143 -0.02485949403158711  -0.03967714040186228 -0.0258983901572066 0.01303149475134728  -0.037441 -0.031264 -0.002905  -0.03732113954780657 -0.01701469825628496 -0.0265245919761908  -0.03685067242239624 0.01748384243867774 -0.02684562858407657  -0.009854336773279149 -0.01384408163627372 -0.01978777176686668  -0.036929 -0.02584 0.021645  -0.036929 -0.007804 0.032792  -0.036929 0.007804 -0.032792  -0.03698846704788515 0.02584 -0.02146198412952453  -0.03576810672064631 -0.03263414503927621 0.007086120583432476  -0.03621056860850631 -0.008537190203393101 -0.03184816671271234  -0.03559475745020937 0.03284606053254825 -0.007053441363397597  -0.033533 0.031693 -0.016478  -0.03292211493494396 -0.001214309522569032 -0.03619171940793735  -0.03243571805057109 0.001224408606282728 0.03662626850077524  -0.031997 -0.036987 -0.010397  -0.031997 -0.02584 -0.028433  -0.031997 0.02584 0.028433  -0.03204115485955803 0.03075729860277714 0.0203928210825896  -0.031997 0.036987 0.010397  -0.03243147332066496 -0.03379671736279824 0.01425268571375688  -0.031608 -0.015082 0.034486  -0.031608 0.0241 -0.028913  -0.02961963933615586 -0.03028066577125982 0.02435081068270409  -0.02886215033698943 -0.03973235697938131 0.009264896059601528  -0.028868 -0.009379999999999999 -0.039733  -0.028868 0.009379999999999999 0.039733  -0.028868 0.039733 -0.009379999999999999  -0.0272080048442554 0.007418556175778055 -0.03987973523180979  -0.026287 -0.022361 0.03618  -0.02627694603556986 0.02236304392813957 -0.03618330823781371  -0.026188 0.032821 -0.025135  -0.02414412446875224 0.03338165421810636 0.02640705597593888  -0.024919 0.03836 0.017476  -0.02412361216801523 -0.02596328311105493 -0.03402877891816361  -0.02439078629365199 0.03846394450892718 -0.01783535271592886  -0.02458938678007193 -0.001356917071046851 -0.04229337251769552  -0.024357 -0.038386 0.018192  -0.02457071597438821 0.00109259960201285 0.04233250386759371  -0.02423 -0.033463 -0.026306  -0.019776 -0.036987 0.027219  -0.019776 -0.007804 0.045255  -0.019776 0.007804 -0.045255  -0.019776 0.036987 -0.027219  -0.019735 -0.008592000000000001 -0.043984  -0.01978806461543882 0.04311702324963859 -0.01208253429178276  -0.01892862770841087 0.008530073841898399 0.04431172963675564  -0.017841 -0.039733 -0.024556  -0.017841 0.039733 0.024556  -0.017531 -0.033463 -0.031173  -0.017497 -0.043183 -0.015065  -0.01770933906190419 0.04346407488954426 0.01391630448492417  -0.01722982027578962 0.03261200382964681 0.03216146684480273  -0.017154 -0.046634 -0.005574  -0.017154 -0.02584 -0.039218  -0.017154 0.02584 0.039218  -0.017154 0.046634 0.005574  -0.016024 0.04109 -0.021666  -0.01494121952274096 5.494991148457967e-05 0.04679907238030961  -0.01512526514718975 -0.0317009568381934 0.03394818247529849  -0.01381587557992425 0.01754731437057834 -0.04344583277283987  -0.01401384807495315 0.03115837349202418 -0.03491509825450116  -0.01387721695689824 -0.01788937852926916 0.04331188078629762  -0.013957 -0.04654 0.004955  -0.01441440998521693 -0.01795873171202407 -0.04310501290094694  -0.01369 0.046634 -0.005087  -0.01009005588036551 -0.04655470403191454 -0.01081058661137365  -0.010602 -0.046634 0.014592  -0.010602 0.007804 0.048236  -0.010602 0.046634 -0.014592  -0.010524 -0.00791 -0.04821  -0.009887999999999999 -0.03836 0.028786  -0.009261790657046021 -0.008539116438300484 0.04731318536605013  -0.009887999999999999 0.03836 -0.028786  -0.009771999999999999 -0.030735 -0.036718  -0.009185581067571447 -0.02585217748927433 0.04179506046613823  -0.009174 0.02584 -0.041811  -0.009108 0.008654 -0.047336  -0.008921 -0.043183 -0.021296  -0.008937075752852673 0.04310480187608008 0.02141776686200119  -0.008577 0.048317 0.002787  -0.008299406214355463 0.03823942999888234 0.02941739850850579  -0.008463174279235021 0.0312599477088679 0.03656675890254371  -0.004783583210573968 0.03242585507318451 -0.03636965250607311  -0.005301 -0.043183 0.022472  -0.005301 -0.015082 -0.046479  -0.005301 0.048317 -0.007296  -0.005211 -0.000665 0.048668  -0.004439314452187551 0.04275226375062801 -0.02342997776998131  -0.004364152694500316 -0.01681945334952561 0.04576367687154725  -0.004831654088850597 0.01806404578336494 -0.04525963097092563  0.0007022698444801325 -0.04663540093736477 0.014444250464636  0 -0.05 0  0 -0.046634 -0.018036  0 -0.039733 0.030353  0 -0.036987 -0.033644  3.125325765250436e-06 -0.02245740950567151 -0.04464746425536401  0 -0.009379999999999999 0.049112  8.325710264163455e-05 -0.008148269180658354 -0.04815287118430898  -1.867729409312596e-05 0.009229289177948156 -0.04910428056285188  0 0.022361 0.044721  0 0.036987 0.033644  -0.001218025573793352 0.04653770829286376 -0.01481187277953063  0 0.046634 0.018036  0 0.05 0  0.00016 0.039693 -0.030345  -0.0008018054486786524 0.008158689946443008 0.04815074925823663  0.003657154072143134 0.03372747038535494 -0.03530604672821342  0.004587 0.01761 -0.045461  0.005452665192909564 -0.04306588633302541 0.02260952214587862  0.005005204357090245 0.0008181317909628782 -0.048675536048003  0.005301 0.043183 -0.022472  0.005356737186059587 -0.0177743034181618 0.04523896415525235  0.004604139298720805 -0.001630259667997099 0.04871740803644251  0.005934 -0.048143 0.007778  0.008325373550506426 -0.03154382128886014 -0.03637482269702176  0.008418946271403974 0.03163034608668942 0.03626181934309521  0.009526490850063286 -0.04299130408349978 -0.02139731883443462  0.008921 0.043183 0.021296  0.007390093158185135 0.04652853192103715 0.01290636599637836  0.009258243160547136 -0.02592657349427958 0.04169671787997016  0.009174 0.02584 -0.041811  0.01026718864631555 -0.03835289042056216 0.02858588547782126  0.009340873701426543 -0.008635601893535183 0.04729068077504547  0.009463904584300409 0.008625797247933989 -0.04726669174367604  0.009887999999999999 0.03836 -0.028786  0.010205 0.038558 0.028446  0.010602 -0.046634 0.014592  0.010602 -0.007804 -0.048236  0.010602 0.007804 0.048236  0.010602 0.046634 -0.014592  0.01414677769719092 0.0318539497135082 -0.0341630215081841  0.013603 0.046634 -0.005355  0.01391051592501494 -0.04668741774661421 0.003573146715528378  0.01422484107797216 -0.01720313510422107 -0.04341353717834465  0.01485224578135476 -0.01633235231710342 0.04353414016723415  0.0144968589055904 -0.03131222079577271 0.03458837952923594  0.014528 0.016731 -0.04355  0.014922 8e-06 -0.046798  0.015189 -0.041811 0.020905  0.017154 -0.046634 -0.005574  0.017154 -0.02584 -0.039218  0.01705876107071777 0.02582067905596933 0.03924855818274277  0.017154 0.046634 0.005574  0.01738746518387923 0.04333175481357129 0.01472441488755569  0.01761304203742924 -0.04317985484577645 -0.01489273207995775  0.01749630283838834 0.03277287993668752 0.03190190055911094  0.01749060704344387 -0.03247092055286038 -0.03221369942065879  0.01709808427851989 -0.02422851020983817 0.03920297974189902  0.017841 -0.039733 -0.024556  0.017841 0.039733 0.024556  0.019081 0.008701 0.044232  0.019776 -0.036987 0.027219  0.019776 -0.007804 0.045255  0.019776 0.007804 -0.045255  0.019776 0.036987 -0.027219  0.01984457145726764 0.02343263912858476 -0.03840346129995038  0.020757 -0.008441000000000001 -0.043527  0.021255 0.042603 -0.011565  0.02326500512967002 -0.03449493766125505 -0.02585072328517351  0.02311561260340114 -0.04308314437441599 0.001894828765536271  0.02342033427345287 0.0429172488223377 -0.002607221098998199  0.023032 0.015738 -0.040431  0.02393314295168048 0.02780495823288194 -0.03274152810400158  0.02391781571702157 -0.0004850960474568912 0.04270695868223139  0.02444650634997888 0.03845486278270692 -0.01787816461116968  0.02407816744596627 -0.0420757835121373 -0.007993899359976088  0.0245169098150132 -0.03825302755043918 0.01820190045268769  0.02397081128374749 0.03344144744628375 0.02651667316646513  0.02473617762546164 0.03848962882748188 0.01738723612331032  0.026287 -0.022361 0.03618  0.026287 0.022361 -0.03618  0.028868 -0.039733 0.009379999999999999  0.028868 -0.009379999999999999 -0.039733  0.028868 0.009379999999999999 0.039733  0.028868 0.039733 -0.009379999999999999  0.03016272807208971 -0.01750825197137169 -0.03433427889389375  0.030433 -0.03836 -0.000508  0.03024301398342013 0.01765850847321108 0.03419443578158489  0.030433 0.03836 0.000508  0.03110964385069723 -0.02964592189950172 0.0234946851528421  0.031608 -0.0241 0.028913  0.031997 -0.036987 -0.010397  0.03187333779920321 -0.03140879529697282 -0.01958590477441702  0.031997 -0.02584 -0.028433  0.03174617131418277 0.03099621955035622 0.02041782496596811  0.03199675358399435 0.03698721632300239 0.01039544193869576  0.032015 0.025834 0.028408  0.03336730784915034 -0.03197213564945888 0.01623494159345271  0.032899 -0.000
[...]
<PointData  Vectors="Displacement"> 
<DataArray  type="Float64"  Name="Displacement"  NumberOfComponents="3" format="ascii">1.4875713804975146e-03 2.3109185778415050e-03 2.7979864871629191e-03  1.9740178699030860e-03 2.5168684378156256e-03 2.2915202917748205e-03  1.2445464589624945e-03 1.8769804915220838e-03 2.2631292694602705e-03  2.2269237792168217e-03 2.8522893542821024e-03 2.6194351120758675e-03  1.8956294631206100e-03 2.7633066350562078e-03 2.9077735607054294e-03  1.4562423984401454e-03 1.9667559515364197e-03 2.0447035836769841e-03  2.5350177124538378e-03 3.2771744297465993e-03 3.0597759172638957e-03  1.0311511779741084e-03 1.4668203647364346e-03 1.7919452917382469e-03  1.0540481133891303e-03 1.7986872463327012e-03 2.4557508634605453e-03  1.7740215646565307e-03 2.7253653436312866e-03 3.1120636777195402e-03  2.4767528212406202e-03 2.9825303629487871e-03 2.2444527664158011e-03  2.7322164811080930e-03 3.3633887176358380e-03 2.7156396752134903e-03  8.5530129589180611e-04 1.3788104847255529e-03 1.9287010969039808e-03  2.2672746810914290e-03 3.1742110703113797e-03 3.2017567952571844e-03  1.2757249604263578e-03 1.5911873951480282e-03 1.4614605464356150e-03  2.1102785283548860e-03 3.1521853186302490e-03 3.3716255721302785e-03  6.4685849830986011e-04 1.2339314865083652e-03 2.0767301072070069e-03  3.0465819517434987e-03 3.4729737898306599e-03 2.2153852646050994e-03  1.5750414976721391e-03 1.6880091536247246e-03 1.0668877805535720e-03  1.7164819438847373e-03 2.7914252510698890e-03 3.2045723783098159e-03  1.1500273582274673e-03 2.1793236734462813e-03 2.9318650536027139e-03  2.5138202085800768e-03 2.7100327141015980e-03 1.4548740491036329e-03  8.9306092202954309e-04 1.1837930040114644e-03 1.2600585285175332e-03  2.7198207455085867e-03 3.5303787927061197e-03 3.2111009824077274e-03  3.0458469383084961e-03 3.6756008374400507e-03 2.8789028850141484e-03  6.1827903263328985e-04 9.7778231936535074e-04 1.4087244122004748e-03  2.4905860032269104e-03 3.4962423429777240e-03 3.3638208502882790e-03  1.9388603228967169e-03 3.2765537113929842e-03 3.2956020331858125e-03  6.2817410235083235e-04 1.3459657287296868e-03 2.1645242289758870e-03  5.2849844640444495e-04 6.3865020565124803e-04 8.4512807492517013e-04  1.1241273610522900e-03 1.6994831228266726e-03 5.9552107602790490e-04  2.9345356069288863e-03 3.8205503575369235e-03 3.3712500182880244e-03  3.4901340216650502e-03 3.9813947885497880e-03 2.7299016515862115e-03  3.3553400052878298e-04 5.4710454235568193e-04 1.0549083911027817e-03  7.2634554167003650e-04 7.7612195918761882e-04 5.9036471092265420e-04  2.4562374199827461e-03 3.8066823199795026e-03 3.3436941219116239e-03  4.2792266652431161e-04 8.6818738380615220e-04 1.6131387301688597e-03  1.4937636654399949e-03 1.2613254338893370e-03 3.6927282364862112e-04  1.0086157147712713e-03 7.6123763021764207e-04 2.0803445799082688e-04  2.6539163039505616e-04 4.8862976458284384e-04 1.0213319816061138e-03  3.7381172114333964e-03 4.0359114218656966e-03 2.1506463339520440e-03  1.8003016658832158e-03 3.3733243269148793e-03 3.1821991628529812e-03  5.9629265738498879e-04 1.4071988368530158e-03 2.2998510397172094e-03  3.4229574054754773e-03 3.3517225492722233e-03 8.4604191107254061e-04  3.0231391283664726e-03 2.7604745960110059e-03 5.4684598958654369e-04  2.5685385381003741e-03 1.9494988824221757e-03 1.6930203565407260e-04  2.7704155790792889e-03 4.0603018457124442e-03 3.2857189696508947e-03  3.5985324495792139e-03 4.0942634937170107e-03 2.8205162518963184e-03  4.2458951027723492e-04 4.3554842180400238e-04 3.7000748114491059e-04  3.1520807891516505e-03 4.0220967366735973e-03 3.2034028130621985e-03  3.0327438930028961e-03 5.0568120344480789e-03 3.0031558525917125e-03  1.6978777755326545e-04 4.3351286443425025e-04 9.3677994765642544e-04  3.9366716167794349e-03 4.0764267663595194e-03 1.6292303306444137e-03  1.4933067826876905e-03 5.3945817097323572e-04 -3.5818940731411974e-04  1.6481423443631991e-04 8.5209126054841848e-05 3.8817802940915099e-04  3.7319665974226992e-03 4.2029860961290679e-03 2.8745834114257316e-03  1.1167897638677640e-04 1.1666033765742051e-04 1.8309473419926472e-04  6.5037213875288611e-04 3.2456737494050892e-04 -2.0249187162258643e-04  3.4319395244067413e-03 3.0132639044272089e-03 1.6493598343939512e-05  2.9849830407908647e-03 2.2203377853719799e-03 -2.7503736077492529e-04  3.9413472235003756e-04 1.0630596758233110e-03 1.6764224406423461e-03  1.1143563659186649e-03 1.6007812571777828e-04 -5.3018280290248780e-04  0.0000000000000000e+00 0.0000000000000000e+00 0.0000000000000000e+00  3.1517417561787130e-03 4.5273620711316761e-03 3.1301899724884737e-03  4.0899127440291103e-03 4.2473544320830794e-03 1.8449832652302060e-03  7.6982399982395290e-04 1.8302282378454859e-03 2.3073700205998569e-03  3.4136662460760503e-03 4.2918948351196740e-03 3.0103527184037098e-03  4.2454364731009855e-03 4.3997136711718954e-03 2.0260233693354742e-03  0.0000000000000000e+00 0.0000000000000000e+00 0.0000000000000000e+00  6.7789179189958336e-04 8.5572778273423260e-05 -6.0713707506280775e-04  0.0000000000000000e+00 0.0000000000000000e+00 0.0000000000000000e+00  1.5065653580503390e-03 -3.2972269107200584e-04 -1.0356942120419241e-03  4.2461523372097579e-03 4.2572408445810941e-03 1.2337996167814497e-03  9.0460594263698946e-04 2.5715715865156563e-03 2.4231707965825587e-03  3.4536613196133308e-03 2.6756476895434802e-03 -7.8431276677653344e-04  5.5646175400434459e-04 1.5513772917318625e-03 1.8594634121085515e-03  1.8866051047086987e-03 4.4969238081381179e-03 2.9223876404194308e-03  2.9995994600186780e-03 1.2302855237312958e-03 -1.1090202550126656e-03  3.7416125259688055e-03 3.3041237086246953e-03 -2.1624731797689802e-04  2.6096790187046712e-03 6.3447046125357153e-03 2.9695995447554671e-03  2.3658631666644751e-04 6.5145127695263665e-04 1.1000579501602094e-03  4.0328284921256115e-03 3.8358283135343685e-03 1.8678270164562978e-04  2.6489789720196303e-03 -5.2516997628872589e-04 -1.6130172754035379e-03  1.0699870035376143e-03 -2.9188435412396568e-04 -9.7837579054210386e-04  4.3680305084327995e-03 4.3937951068514945e-03 1.4480431567571344e-03  3.7182947421707203e-03 4.1602371306046042e-03 2.7063984916716761e-03  0.0000000000000000e+00 0.0000000000000000e+00 0.0000000000000000e+00  3.3413963762933654e-04 3.7022323787673355e-05 -4.6376258256768875e-04  4.1489399084753886e-03 4.3282425812850378e-03 2.1558009811071224e-03  3.0632752865511113e-03 5.9487299786459063e-03 2.5211513034725866e-03  0.0000000000000000e+00 0.0000000000000000e+00 0.0000000000000000e+00  2.0667954631823416e-03 -1.1178700171288237e-03 -1.4924956873925671e-03  1.6726323253454650e-03 4.1067401768667376e-03 2.5959155555086520e-03  2.9776040368714738e-03 5.0075913133266351e-03 2.5431448493120588e-03  4.4958264184073032e-03 4.3714695295041725e-03 8.8212335371116210e-04  1.5506639062606940e-03 -1.6885397317095076e-03 -1.4042132149692419e-03  0.0000000000000000e+00 0.0000000000000000e+00 0.0000000000000000e+00  3.4531935623044897e-03 4.1225415057725692e-03 2.5804013956524717e-03  4.4142664599600258e-03 4.4104039707910268e-03 1.5788895041766815e-03  8.0898753582154973e-04 -1.5256222080965023e-04 -9.8716957244469189e-04  3.6922941739143901e-04 8.5698388440009641e-04 1.1578490923894373e-03  4.1134319598007570e-03 4.2936804103716926e-03 2.2251637163299086e-03  0.0000000000000000e+00 0.0000000000000000e+00 0.0000000000000000e+00  0.0000000000000000e+00 0.0000000000000000e+00 0.0000000000000000e+00  1.1116169993886644e-03 3.0212952530928794e-03 2.2123954582413297e-03  3.3030907853400489e-03 2.0140668342164781e-03 -1.5375895542680319e-03  2.3792907543585323e-03 -2.0493964537688192e-03 -2.1953801952669795e-03  3.6241545788721959e-03 2.9680617029057563e-03 -1.1082321463604283e-03  3.9962486023623241e-03 3.5494473839521225e-03 -5.1884458197548101e-04  4.2041736482839121e-04 2.0709568477355776e-05 -6.6924299536869633e-04  3.1518988616256421e-03 4.0539314134495838e-03 2.4599317988494873e-03  0.0000000000000000e+00 0.0000000000000000e+00 0.0000000000000000e+00  2.0804509090906484e-03 -3.5819463189960487e-03 -1.7767854322340054e-03  4.5250718319023416e-03 4.3825372682630617e-03 1.0392018839972860e-03  1.2832958724083611e-03 -6.3078948439369842e-04 -1.4510407374712661e-03  4.3308236988566775e-03 4.3511875699189994e-03 1.6982168982612276e-03  0.0000000000000000e+00 0.0000000000000000e+00 0.0000000000000000e+00  2.6961568741004729e-03 3.9435549569437015e-03 2.1746315483957565e-03  1.8178844626007104e-03 3.8340661306357116e-03 2.2030301599846752e-03  1.0087446187627260e-03 3.2303317758070379e-03 2.0872770723050342e-03  3.5283427416835950e-03 3.9788308191518271e-03 2.1893510807225207e-03  5.4405123512367545e-04 1.1908242721773734e-03 1.3098217970237977e-03  0.0000000000000000e+00 0.0000000000000000e+00 0.0000000000000000e+00  4.5481431114025497e-03 4.3900484870475097e-03 1.1782088074368199e-03  0.0000000000000000e+00 0.0000000000000000e+00 0.0000000000000000e+00  0.0000000000000000e+00 0.0000000000000000e+00 0.0000000000000000e+00  4.4142368762401804e-03 4.0349862303983184e-03 -3.3049256501372075e-04  3.8634326853380042e-03 3.2408883472984902e-03 -1.2798430142163385e-03  1.6698917108448061e-03 -2.8552249570129749e-03 -1.6600325334488494e-03  2.9148195998282890e-03 9.5599410818070641e-04 -2.5809927129068827e-03  1.8403444329460484e-03 -1.9284385088207511e-03 -2.7198438579902765e-03  9.7096558098594236e-04 -1.1242332476648607e-04 -1.2694486195210092e-03  4.5533499131973805e-03 4.2843100447181480e-03 4.3728061666967828e-04  6.3355989242292257e-04 8.4562474901787933e-05 -8.5892122423135442e-04  0.0000000000000000e+00 0.0000000000000000e+00 0.0000000000000000e+00  3.0679855208659013e-03 3.7483964390898411e-03 2.0129526087589184e-03  0.0000000000000000e+00 0.0000000000000000e+00 0.0000000000000000e+00  1.4280715682774218e-03 -8.0689888902500244e-05 -1.7354665959948630e-03  4.3576961825541197e-03 4.2057283817845204e-03 1.2803573629052126e-03  4.5781777004654097e-03 4.2968948522544275e-03 6.3230240133802028e-04  2.1691060604529773e-03 3.7216693480913074e-03 2.0153434522476076e-03  4.7768818342355048e-04 7.5099732375609853e-04 8.0323902528091253e-04  4.0500795875728001e-03 3.4515147924592325e-03 -1.2189167271872620e-03  9.4942779876030429e-04 2.2586517788243717e-03 1.4758110240605416e-03  3.3154537319756302e-03 2.2040379345525875e-03 -2.0722016916131202e-03  2.8900639157982398e-03 1.3652435540619304e-03 -2.3141752314872299e-03  4.1564491899521005e-03 4.0582399101755408e-03 1.3861715011066749e-03  0.0000000000000000e+00 0.0000000000000000e+00 0.0000000000000000e+00  3.4527562150703187e-03 3.7032000578987602e-03 1.7231854603644719e-03  4.5071828714702061e-03 4.2023611938986479e-03 7.1373086582812684e-04  0.0000000000000000e+00 0.0000000000000000e+00 0.0000000000000000e+00  1.2371640750468223e-03 7.6076698584027968e-05 -1.5872844551068927e-03  3.6542993502006152e-03 2.8507475627555304e-03 -1.7353191869589307e-03  2.5319159814397936e-03 3.6438163382333548e-03 1.8155027610878829e-03  0.0000000000000000e+00 0.0000000000000000e+00 0.0000000000000000e+00  4.6175650604370101e-03 4.1851076008664776e-03 -6.4532137145879449e-05  1.8433695825568956e-03 -1.0738456439988361e-05 -2.0642147692344999e-03  9.5876140805600417e-04 1.1331031889558639e-04 -1.2493415411070103e-03  2.1692627908905223e-03 4.4861702109868650e-04 -2.2755443646796281e-03  1.8351022960267948e-03 3.5939679135861529e-03 1.5935708112424748e-03  0.0000000000000000e+00 0.0000000000000000e+00 0.0000000000000000e+00  4.3261634572670932e-03 3.9985189060243531e-03 7.8412855505240208e-04  3.8270756020504027e-03 3.7681964219906145e-03 1.3140598429447490e-03  0.0000000000000000e+00 0.0000000000000000e+00 0.0000000000000000e+00  0.0000000000000000e+00 0.0000000000000000e+00 0.0000000000000000e+00  2.9861529364274861e-03 3.4858467162992260e-03 1.5454899564898079e-03  1.2212262615948709e-03 3.4280834571260841e-03 1.4737294785757862e-03  4.4182525612259039e-04 3.5992498172042367e-04 3.8253969321777251e-04  4.2548006602604934e-03 3.6308840926360035e-03 -1.2564110637842440e-03  2.6131481055497374e-03 1.3401866660220558e-03 -2.3983312782084746e-03  3.0423715610377266e-03 1.9305313286592713e-03 -2.2679032150950203e-03  1.0977704703888809e-03 2.7545065168370856e-03 1.2738844251222608e-03  3.9109610926006087e-03 3.1849061151924510e-03 -1.6448164024123915e-03  7.4507187817119758e-04 8.8591355832736991e-04 6.4089367022551074e-04  4.1012533143420489e-03 3.8580604040255474e-03 9.5551069584651693e-04  9.1599685734352406e-04 1.6183564018185409e-03 9.8787235168216873e-04  3.5270934149367952e-03 2.6717581303886398e-03 -2.0774869903692722e-03  4.4845608169295998e-03 3.9393180657245029e-03 -4.8341889437893083e-04  3.4205477396780232e-03 3.4505867603126586e-03 1.2360573800465544e-03  4.4633100862450752e-03 4.0074997238678982e-03 1.9945352620640662e-04  0.0000000000000000e+00 0.0000000000000000e+00 0.0000000000000000e+00  1.3882996135452927e-03 3.0357564822697101e-04 -1.8777213674688780e-03  5.8261167258133733e-04 9.2552087359639153e-05 -9.8454299562487305e-04  0.0000000000000000e+00 0.0000000000000000e+00 0.0000000000000000e+00  2.1049384229817067e-03 7.3066200377140027e-04 -2.2995011633726186e-03  1.0138501244345722e-03 1.2845101614502301e-03 6.0645867372649553e-04  1.9245170620236260e-03 2.9898730724574477e-03 1.1374968158259597e-03  2.4253650915212021e-03 1.1436964828743915e-03 -2.4118924656313353e-03  0.0000000000000000e+00 0.0000000000000000e+00 0.0000000000000000e+00  1.0583822238345068e-03 2.4080210170579456e-04 -1.5792846379910006e-03  4.4068533734468347e-03 3.8458486629131352e-03 -2.9604874665293515e-04  1.8777879167935013e-03 6.1187086054322439e-04 -2.1707978272426003e-03  1.6069158956493787e-03 2.6201837546562527e-03 1.0623954952647527e-03  2.9424845264494552e-03 3.1201549151667497e-03 1.0499141453543281e-03  3.7137594153396360e-03 2.8716641529141591e-03 -1.9610565255352352e-03  3.2914075114927515e-03 2.3007219031158346e-03 -2.2724826761092273e-03  4.0375830213181182e-03 3.6323319194800667e-03 4.7207752964250108e-04  7.5537366692708815e-04 1.2873767117761365e-04 -1.3519797305500253e-03  2.4324124385611276e-03 2.8225703901047462e-03 8.2651286355334380e-04  4.0381659021237603e-04 1.8630692183277769e-04 -5.9164195900724640e-04  4.3427650427713370e-03 3.6433666608463619e-03 -9.7191811645520605e-04  2.2672606790336979e-03 1.0160321245930295e-03 -2.4253243174092894e-03  7.7134251551532038e-04 4.7597413996778616e-04 -4.0295774916861491e-04  2.0893536000431237e-03 2.3757980040400471e-03 6.9788610018296034e-04  4.1238769651151452e-03 3.3251009786191888e-03 -1.4254129317479945e-03  2.6558770216345970e-03 1.5019457583899823e-03 -2.4506121982829972e-03  3.3908028565321630e-03 3.0798267309640188e-03 4.6758248518744097e-04  3.6936978774634796e-03 3.2607993592394307e-03 2.5700953017801850e-04  1.6965219132504157e-03 1.8350737019454054e-03 5.1298918252422527e-04  1.4046264783848950e-03 1.2865490809961704e-03 2.1948694160206706e-04  1.0556321261392407e-03 7.9657424510398830e-04 -8.6822652580683708e-05  3.5022651984511653e-03 2.5798882986972776e-03 -2.1571686646974959e-03  3.0691099754735630e-03 2.0214806027351261e-03 -2.4426917073955621e-03  3.8636103286491395e-03 3.0190877583179082e-03 -1.9146577922419538e-03  3.0034144876822052e-03 2.7767423714498271e-03 3.9263822174942986e-04  7.1102418997537656e-04 2.8204239585758698e-04 -9.7533679752134827e-04  4.1721586031852687e-03 3.4599501609827829e-03 -7.9434798445477328e-04  9.0823647108307683e-04 4.2702158735747313e-04 -9.0308893439002274e-04  2.4144342143137126e-03 1.2077275188863428e-03 -2.4089566655055980e-03  2.5539169519800667e-03 2.3985076580548218e-03 3.2759820318894350e-04  1.4215911048533170e-03 4.2676493894111729e-04 -6.9692059824054040e-04  1.3371987692895825e-03 4.2675246499263768e-04 -1.7742867542750956e-03  3.3497458253230559e-03 2.8803226241358323e-03 4.7128340326978364e-05  3.6881942389947260e-03 3.0817758675946352e-03 -2.5839270500346866e-04  4.0013439046738620e-03 3.3091062299345328e-03 -6.2164805054952619e-04  9.9711201218920806e-04 3.3173530334126806e-04 -1.4696982874328063e-03  1.7550964673009959e-03 6.3984761723653004e-04 -2.1656326014790157e-03  1.2246557337447037e-03 7.6546122387153898e-04 -5.9260991641210182e-04  1.8049450172732714e-03 1.5292558317289125e-03 -2.1506614192420590e-05  1.5195549577496764e-03 5.2246221156632719e-04 -1.9250482976236295e-03  1.4677043293958728e-03 1.0477059248872635e-03 -3.3993683745065753e-04  3.5544084987910239e-03 2.5991240349945424e-03 -2.0710787624285214e-03  3.8427133618144003e-03 2.9502211751804060e-03 -1.6943523729433352e-03  2.1296933643567967e-03 1.9362196501453979e-03 1.4741457121818170e-04  1.2558832732450164e-03 4.1215076997250098e-04 -1.6852587926226464e-03  2.1298989520332932e-03 9.6796002317807222e-04 -2.2739984476299649e-03  1.9279317577658279e-03 8.0567426427359762e-04 -2.0992060136176354e-03  1.5338302700579091e-03 6.1142302717530816e-04 -1.7552861375125617e-03  2.6286911290160412e-03 3.3988452716742171e-03 1.4244495822456583e-03  1.8202688565585425e-03 1.2848927738907607e-03 -5.4069133826390163e-04  3.3114022502126095e-03 2.2740320674562433e-03 -2.1925918511443206e-03  3.5424933696737598e-03 2.5574218861730124e-03 -1.8777025507710570e-03  2.5874120334008163e-03 2.0852556868211623e-03 -2.8288617439748283e-04  1.3969225198254575e-03 6.9235879849492146e-04 -1.1992389169168025e-03  3.7712336602089102e-03 2.8390266496004244e-03 -1.5475939360204826e-03  2.5841219599067244e-03 1.4311569345310930e-03 -2.3927160687816995e-03  2.2521236989036983e-03 1.6872805207119889e-03 -4.0124075707941340e-04  2.9750925784304545e-03 2.2378607768689909e-03 -6.6717212367317213e-04  1.8396967498372210e-03 1.0173001453305378e-03 -1.2622320888559678e-03  2.5487059302036173e-03 1.7834690251589190e-03 -8.2296009475666548e-04  3.3535547331572193e-03 2.3581993796474472e-03 -1.7301106977678107e-03  3.2623439453431276e-03 2.4143618567622916e-03 -1.0567951270030842e-03  2.0378047982586639e-03 9.8777819958716377e-04 -1.9673679410530109e-03  3.1116356128530857e-03 2.1468627943546123e-03 -1.4957579149904125e-03  2.6974444359273951e-03 1.7955766535629443e-03 -1.2574717224347466e-03  2.3995830797423298e-03 1.5093257751246864e-03 -1.3350850659198069e-03  2.9258852304947232e-03 1.8889329413245076e-03 -1.9013432088190564e-03  1.0090373192126717e-03 5.7052716207861901e-04 1.4443947878237898e-04  3.3478061018855725e-03 2.9805368525862228e-03 4.7048863614137246e-04  3.4698095346982945e-04 4.0313337897625811e-04 7.1475208469425508e-05  3.3297743523652700e-03 2.4492960410402408e-03 -9.1475625660458022e-04  3.0102351383786159e-03 3.9606680604513372e-03 2.0883409269047593e-03  4.2022040017507395e-03 3.7436604050416294e-03 2.3950592221623520e-04  1.6672876960066620e-03 2.5736697931672140e-03 2.4119795611931105e-03  1.3594623560860520e-03 2.0657059377983851e-03 2.0190751211515974e-03  1.6656278269241136e-03 2.1614358598456866e-03 1.8003949377474265e-03  2.1366533095047296e-03 2.6931952160551974e-03 2.0762312161112986e-03  3.1805296598638288e-04 2.3775040937626992e-04 6.3590436878419484e-06  5.1547547430657670e-04 1.9504156715647035e-04 -7.7570151658383528e-05  2.1370209237893435e-03 2.0606873841444791e-03 2.7269735533718456e-04  9.7523624780919090e-04 1.9201715569104722e-03 2.0346479748064258e-03  2.3863577173230820e-03 1.1128016830983774e-03 -1.5608195808032384e-03  3.2189986042008910e-03 3.7341995262093540e-03 2.4202460839272372e-03  3.4864420337277972e-03 4.0078644799092754e-03 2.4418667872918923e-03  1.6291852350299489e-03 2.1901928448271111e-03 1.6538846316239916e-03  2.1965791164480558e-03 2.9690252066365045e-03 2.3333420678713305e-03  2.8954777293515540e-03 2.1960039117727599e-03 -1.0541116841129912e-04  3.2397273637730976e-03 3.3803763712077013e-03 1.5689035311389618e-03  3.9998247188601524e-04 2.4599118682119939e-04 -7.2040043416709166e-04  2.7734409213710154e-03 1.6776165743557262e-03 -2.1438582058440538e-03  1.7843211827505900e-03 2.1229691136655979e-03 1.6961072070565836e-03  4.2715080410097670e-03 4.1236560356321377e-03 5.9099510652848165e-04  2.64816546150