<?xml version="1.0"?>
<VTKFile type="UnstructuredGrid"  version="0.1"  >
<UnstructuredGrid>
<Piece  NumberOfPoints="600" NumberOfCells="2587">
<Points>
<DataArray  type="Float64"  NumberOfComponents="3"  format="ascii">-0.049151 -0.007804 -0.004823  -0.049151 0.007804 0.004823  -0.04790259406976923 0.001239683006004082 -0.009956012925459262  -0.04793098230285929 6.363167544250274e-05 0.009851369209831233  -0.04805944391332882 -0.008322903244759101 0.004219375566196385  -0.04786680619860946 0.008218644343796168 -0.005945462783549257  -0.04663476580214215 -0.009365629347722821 0.01531220317822907  -0.046709 0.009379999999999999 -0.015177  -0.04590539205244906 -0.007752695598137089 -0.01463013133116827  -0.04582231596126762 -0.01680094137165972 -0.0002315168275560837  -0.045877 0.008153000000000001 0.014626  -0.045046 -0.002284 0.019122  -0.04486234845678985 0.001327104045859624 -0.01953096323341215  -0.044654 -0.01761 0.009686  -0.044654 0.01761 -0.009686  -0.042599 -0.02584 0.004195  -0.042599 -0.007804 -0.024988  -0.042599 0.007804 0.024988  -0.042599 0.02584 -0.004195  -0.0425336923786702 -0.02428929218027723 -0.004072171917105918  -0.042533 -0.022361 -0.01382  -0.042533 0.022361 0.01382  -0.04238682415244291 0.01675564369295764 -0.01788960117370473  -0.04155 -0.017955 0.018656  -0.041471 -0.008366 0.024717  -0.04136349319913134 0.00813871199233143 -0.02485949403158711  -0.03967714040186228 -0.0258983901572066 0.01303149475134728  -0.037441 -0.031264 -0.002905  -0.03732113954780657 -0.01701469825628496 -0.0265245919761908  -0.03685067242239624 0.01748384243867774 -0.02684562858407657  -0.009854336773279149 -0.01384408163627372 -0.01978777176686668  -0.036929 -0.02584 0.021645  -0.036929 -0.007804 0.032792  -0.036929 0.007804 -0.032792  -0.03698846704788515 0.02584 -0.02146198412952453  -0.03576810672064631 -0.03263414503927621 0.007086120583432476  -0.03621056860850631 -0.008537190203393101 -0.03184816671271234  -0.03559475745020937 0.03284606053254825 -0.007053441363397597  -0.033533 0.031693 -0.016478  -0.03292211493494396 -0.001214309522569032 -0.03619171940793735  -0.03243571805057109 0.001224408606282728 0.03662626850077524  -0.031997 -0.036987 -0.010397  -0.031997 -0.02584 -0.028433  -0.031997 0.02584 0.028433  -0.03204115485955803 0.03075729860277714 0.0203928210825896  -0.031997 0.036987 0.010397  -0.03243147332066496 -0.03379671736279824 0.01425268571375688  -0.031608 -0.015082 0.034486  -0.031608 0.0241 -0.028913  -0.02961963933615586 -0.03028066577125982 0.02435081068270409  -0.02886215033698943 -0.03973235697938131 0.009264896059601528  -0.028868 -0.009379999999999999 -0.039733  -0.028868 0.009379999999999999 0.039733  -0.028868 0.039733 -0.009379999999999999  -0.0272080048442554 0.007418556175778055 -0.03987973523180979  -0.026287 -0.022361 0.03618  -0.02627694603556986 0.02236304392813957 -0.03618330823781371  -0.026188 0.032821 -0.025135  -0.02414412446875224 0.03338165421810636 0.02640705597593888  -0.024919 0.03836 0.017476  -0.02412361216801523 -0.02596328311105493 -0.03402877891816361  -0.02439078629365199 0.03846394450892718 -0.01783535271592886  -0.02458938678007193 -0.001356917071046851 -0.04229337251769552  -0.024357 -0.038386 0.018192  -0.02457071597438821 0.00109259960201285 0.04233250386759371  -0.02423 -0.033463 -0.026306  -0.019776 -0.036987 0.027219  -0.019776 -0.007804 0.045255  -0.019776 0.007804 -0.045255  -0.019776 0.036987 -0.027219  -0.019735 -0.008592000000000001 -0.043984  -0.01978806461543882 0.04311702324963859 -0.01208253429178276  -0.01892862770841087 0.008530073841898399 0.04431172963675564  -0.017841 -0.039733 -0.024556  -0.017841 0.039733 0.024556  -0.017531 -0.033463 -0.031173  -0.017497 -0.043183 -0.015065  -0.01770933906190419 0.04346407488954426 0.01391630448492417  -0.01722982027578962 0.03261200382964681 0.03216146684480273  -0.017154 -0.046634 -0.005574  -0.017154 -0.02584 -0.039218  -0.017154 0.02584 0.039218  -0.017154 0.046634 0.005574  -0.016024 0.04109 -0.021666  -0.01494121952274096 5.494991148457967e-05 0.04679907238030961  -0.01512526514718975 -0.0317009568381934 0.03394818247529849  -0.01381587557992425 0.01754731437057834 -0.04344583277283987  -0.01401384807495315 0.03115837349202418 -0.03491509825450116  -0.01387721695689824 -0.01788937852926916 0.04331188078629762  -0.013957 -0.04654 0.004955  -0.01441440998521693 -0.01795873171202407 -0.04310501290094694  -0.01369 0.046634 -0.005087  -0.01009005588036551 -0.04655470403191454 -0.01081058661137365  -0.010602 -0.046634 0.014592  -0.010602 0.007804 0.048236  -0.010602 0.046634 -0.014592  -0.010524 -0.00791 -0.04821  -0.009887999999999999 -0.03836 0.028786  -0.009261790657046021 -0.008539116438300484 0.04731318536605013  -0.009887999999999999 0.03836 -0.028786  -0.009771999999999999 -0.030735 -0.036718  -0.009185581067571447 -0.02585217748927433 0.04179506046613823  -0.009174 0.02584 -0.041811  -0.009108 0.008654 -0.047336  -0.008921 -0.043183 -0.021296  -0.008937075752852673 0.04310480187608008 0.02141776686200119  -0.008577 0.048317 0.002787  -0.008299406214355463 0.03823942999888234 0.02941739850850579  -0.008463174279235021 0.0312599477088679 0.03656675890254371  -0.004783583210573968 0.03242585507318451 -0.03636965250607311  -0.005301 -0.043183 0.022472  -0.005301 -0.015082 -0.046479  -0.005301 0.048317 -0.007296  -0.005211 -0.000665 0.048668  -0.004439314452187551 0.04275226375062801 -0.02342997776998131  -0.004364152694500316 -0.01681945334952561 0.04576367687154725  -0.004831654088850597 0.01806404578336494 -0.04525963097092563  0.0007022698444801325 -0.04663540093736477 0.014444250464636  0 -0.05 0  0 -0.046634 -0.018036  0 -0.039733 0.030353  0 -0.036987 -0.033644  3.125325765250436e-06 -0.02245740950567151 -0.04464746425536401  0 -0.009379999999999999 0.049112  8.325710264163455e-05 -0.008148269180658354 -0.04815287118430898  -1.867729409312596e-05 0.009229289177948156 -0.04910428056285188  0 0.022361 0.044721  0 0.036987 0.033644  -0.001218025573793352 0.04653770829286376 -0.01481187277953063  0 0.046634 0.018036  0 0.05 0  0.00016 0.039693 -0.030345  -0.0008018054486786524 0.008158689946443008 0.04815074925823663  0.003657154072143134 0.03372747038535494 -0.03530604672821342  0.004587 0.01761 -0.045461  0.005452665192909564 -0.04306588633302541 0.02260952214587862  0.005005204357090245 0.0008181317909628782 -0.048675536048003  0.005301 0.043183 -0.022472  0.005356737186059587 -0.0177743034181618 0.04523896415525235  0.004604139298720805 -0.001630259667997099 0.04871740803644251  0.005934 -0.048143 0.007778  0.008325373550506426 -0.03154382128886014 -0.03637482269702176  0.008418946271403974 0.03163034608668942 0.03626181934309521  0.009526490850063286 -0.04299130408349978 -0.02139731883443462  0.008921 0.043183 0.021296  0.007390093158185135 0.04652853192103715 0.01290636599637836  0.009258243160547136 -0.02592657349427958 0.04169671787997016  0.009174 0.02584 -0.041811  0.01026718864631555 -0.03835289042056216 0.02858588547782126  0.009340873701426543 -0.008635601893535183 0.04729068077504547  0.009463904584300409 0.008625797247933989 -0.04726669174367604  0.009887999999999999 0.03836 -0.028786  0.010205 0.038558 0.028446  0.010602 -0.046634 0.014592  0.010602 -0.007804 -0.048236  0.010602 0.007804 0.048236  0.010602 0.046634 -0.014592  0.01414677769719092 0.0318539497135082 -0.0341630215081841  0.013603 0.046634 -0.005355  0.01391051592501494 -0.04668741774661421 0.003573146715528378  0.01422484107797216 -0.01720313510422107 -0.04341353717834465  0.01485224578135476 -0.01633235231710342 0.04353414016723415  0.0144968589055904 -0.03131222079577271 0.03458837952923594  0.014528 0.016731 -0.04355  0.014922 8e-06 -0.046798  0.015189 -0.041811 0.020905  0.017154 -0.046634 -0.005574  0.017154 -0.02584 -0.039218  0.01705876107071777 0.02582067905596933 0.03924855818274277  0.017154 0.046634 0.005574  0.01738746518387923 0.04333175481357129 0.01472441488755569  0.01761304203742924 -0.04317985484577645 -0.01489273207995775  0.01749630283838834 0.03277287993668752 0.03190190055911094  0.01749060704344387 -0.03247092055286038 -0.03221369942065879  0.01709808427851989 -0.02422851020983817 0.03920297974189902  0.017841 -0.039733 -0.024556  0.017841 0.039733 0.024556  0.019081 0.008701 0.044232  0.019776 -0.036987 0.027219  0.019776 -0.007804 0.045255  0.019776 0.007804 -0.045255  0.019776 0.036987 -0.027219  0.01984457145726764 0.02343263912858476 -0.03840346129995038  0.020757 -0.008441000000000001 -0.043527  0.021255 0.042603 -0.011565  0.02326500512967002 -0.03449493766125505 -0.02585072328517351  0.02311561260340114 -0.04308314437441599 0.001894828765536271  0.02342033427345287 0.0429172488223377 -0.002607221098998199  0.023032 0.015738 -0.040431  0.02393314295168048 0.02780495823288194 -0.03274152810400158  0.02391781571702157 -0.0004850960474568912 0.04270695868223139  0.02444650634997888 0.03845486278270692 -0.01787816461116968  0.02407816744596627 -0.0420757835121373 -0.007993899359976088  0.0245169098150132 -0.03825302755043918 0.01820190045268769  0.02397081128374749 0.03344144744628375 0.02651667316646513  0.02473617762546164 0.03848962882748188 0.01738723612331032  0.026287 -0.022361 0.03618  0.026287 0.022361 -0.03618  0.028868 -0.039733 0.009379999999999999  0.028868 -0.009379999999999999 -0.039733  0.028868 0.009379999999999999 0.039733  0.028868 0.039733 -0.009379999999999999  0.03016272807208971 -0.01750825197137169 -0.03433427889389375  0.030433 -0.03836 -0.000508  0.03024301398342013 0.01765850847321108 0.03419443578158489  0.030433 0.03836 0.000508  0.03110964385069723 -0.02964592189950172 0.0234946851528421  0.031608 -0.0241 0.028913  0.031997 -0.036987 -0.010397  0.03187333779920321 -0.03140879529697282 -0.01958590477441702  0.031997 -0.02584 -0.028433  0.03174617131418277 0.03099621955035622 0.02041782496596811  0.03199675358399435 0.03698721632300239 0.01039544193869576  0.032015 0.025834 0.028408  0.03336730784915034 -0.03197213564945888 0.01623494159345271  0.032899 -0.000
[...]
<PointData  Vectors="Displacement"> 
<DataArray  type="Float64"  Name="Displacement"  NumberOfComponents="3" format="ascii">6.7447089527248151e-04 1.5511543584113155e-03 1.7118587493572385e-03  1.0251219336475043e-03 1.5933789830228501e-03 1.4979821214532541e-03  5.5265622790421482e-04 1.2177679208803234e-03 1.3518908244917883e-03  1.1670325142484508e-03 1.8289096860128534e-03 1.7175315641277918e-03  9.1599392616998666e-04 1.8382222600234173e-03 1.8467126548098267e-03  7.0541695831846391e-04 1.2395628372413778e-03 1.2664730117859764e-03  1.3525725099589215e-03 2.1420402562072880e-03 2.0217739824906120e-03  4.5778392625658480e-04 9.0503106293159856e-04 1.0414549825612694e-03  4.2568152717559524e-04 1.2065566177591087e-03 1.4158993706771959e-03  8.5123099390421644e-04 1.8731521387994566e-03 1.9369054716478502e-03  1.3521965009376080e-03 1.8719314814322774e-03 1.5317175750739973e-03  1.5000882212523900e-03 2.1602060150844016e-03 1.8390106322160370e-03  3.4462216412950387e-04 8.7728687661566647e-04 1.0656340274946040e-03  1.1666318614075544e-03 2.1360781741674175e-03 2.0464595217280618e-03  6.2261913065078851e-04 9.3760102654098722e-04 9.0079433522692630e-04  1.0850840191272508e-03 2.2070081967806294e-03 2.1027548260602689e-03  2.2060058244703488e-04 8.0840525224865902e-04 1.0814118236255699e-03  1.7352453598071279e-03 2.1646804118866103e-03 1.5719566309451542e-03  8.4382852776627830e-04 9.3956808611990429e-04 6.9543687976302893e-04  8.4124153983311588e-04 1.9972029591005234e-03 1.9540691920369464e-03  4.6199572245159669e-04 1.5612941220709393e-03 1.6988378886467722e-03  1.4392458122009164e-03 1.6186297952699470e-03 1.0553636818050115e-03  3.9374560241946032e-04 6.7297672433191762e-04 7.1627863060981034e-04  1.4600946918247191e-03 2.3197978477840025e-03 2.1148139537939554e-03  1.7003576128321396e-03 2.3588319433394209e-03 1.9648515528083942e-03  2.2739729288527889e-04 5.7357235393685688e-04 7.2910176660552267e-04  1.3131567868080176e-03 2.3809807347750915e-03 2.1511942567087479e-03  1.0207534779834901e-03 2.4452462298424770e-03 2.0167255891925563e-03  2.1674733855867054e-04 9.3887913988389764e-04 1.1009940242797042e-03  2.0383744963968568e-04 2.8968952600058568e-04 4.0816918033401113e-04  6.0189598001449498e-04 1.1665173937569317e-03 2.2419648402951413e-04  1.6055698166051720e-03 2.5392106073139323e-03 2.2170754922291955e-03  2.0046327699401126e-03 2.5101080989096895e-03 1.9177004128806388e-03  1.0546950031366726e-04 2.5909607906480830e-04 4.5697402498046167e-04  3.2399726055758773e-04 3.4249543096697121e-04 2.9686829144843325e-04  1.3677402194338072e-03 2.7886443343660642e-03 2.0788957143893249e-03  1.5229855725590568e-04 4.9317691569339189e-04 6.9572636514437180e-04  8.3979688904141684e-04 5.6664872343743420e-04 2.4746023335674183e-04  5.3038560416123739e-04 2.4050687903813639e-04 8.6645508605992454e-05  5.5720765490171727e-05 1.6982483027115262e-04 3.4460067351844449e-04  2.2084964444534154e-03 2.4954481910354426e-03 1.5878433955532304e-03  1.0019635456713528e-03 2.6626213371541796e-03 1.8862390965688376e-03  1.8655078105163343e-04 9.7521279882855543e-04 1.1587540801536534e-03  2.0987165220421535e-03 1.9783397019110106e-03 7.2939412995698990e-04  1.8534710704614867e-03 1.5386415818842696e-03 5.0576942676541846e-04  1.5935586215417401e-03 9.1740627206668088e-04 2.2324058631222063e-04  1.5568503300871200e-03 2.9016651847614859e-03 2.0584509625521316e-03  2.0686278774476020e-03 2.5801378208727835e-03 1.9726640026280396e-03  1.5926916031386374e-04 1.4803198994271696e-04 1.3862370672345498e-04  1.7675451401385339e-03 2.6785146970381116e-03 2.0967846102458608e-03  1.8970897309993073e-03 3.9880442228116602e-03 1.7215240968812501e-03  0.0000000000000000e+00 0.0000000000000000e+00 0.0000000000000000e+00  2.3737978106069045e-03 2.4800075545564505e-03 1.2832350553201649e-03  9.0390328615150251e-04 -1.0707294415597052e-04 -2.3843807662099934e-04  0.0000000000000000e+00 0.0000000000000000e+00 0.0000000000000000e+00  2.1580188669097469e-03 2.6461098491610182e-03 1.9907592790459282e-03  -1.7691349848251877e-05 -9.1094514498355990e-06 2.5391652086691816e-06  3.4142388423296543e-04 -2.0960550224755609e-05 -1.8146166174626250e-04  2.1673563937148533e-03 1.6744876917733128e-03 1.8038831277355241e-04  1.8902979254621444e-03 1.0505379340891951e-03 -4.9077302480139797e-05  9.7845763368649836e-05 5.7426173032871391e-04 5.7934849864376531e-04  6.8791190252816346e-04 -3.2704358101147315e-04 -3.6461191846506120e-04  0.0000000000000000e+00 0.0000000000000000e+00 0.0000000000000000e+00  1.8583228240528918e-03 3.2811878918151132e-03 1.9658311878029008e-03  2.4632353665465958e-03 2.5936504810898757e-03 1.4285359561276487e-03  2.9307541564586219e-04 1.3427999290899987e-03 1.1905796400019945e-03  1.9663830990808455e-03 2.8792412937821543e-03 1.9612417752971939e-03  2.5490100099764680e-03 2.6821149476062476e-03 1.5363005825615693e-03  0.0000000000000000e+00 0.0000000000000000e+00 0.0000000000000000e+00  4.2430170180550973e-04 -2.2086232895285657e-04 -4.0412436020867339e-04  0.0000000000000000e+00 0.0000000000000000e+00 0.0000000000000000e+00  9.8502699665184868e-04 -9.2433148625735808e-04 -6.8781528912678451e-04  2.6067678634438965e-03 2.5669473315972600e-03 1.0570856091878563e-03  3.8678074791423969e-04 2.0436423600302981e-03 1.3305600879572924e-03  2.2431310925409807e-03 1.3708762768804613e-03 -3.8534183826782352e-04  1.6772976392740965e-04 1.0865476794621317e-03 8.7278515906430920e-04  1.1875650027524294e-03 3.8159382679550185e-03 1.7748053198160352e-03  1.9882264388037031e-03 1.2634156160418991e-04 -6.5641158402240929e-04  2.3785493606189281e-03 1.8512872404331481e-03 6.7488014318606686e-05  1.7281859308542762e-03 5.5090323200436310e-03 1.7669019359022339e-03  0.0000000000000000e+00 0.0000000000000000e+00 0.0000000000000000e+00  2.5287814164174165e-03 2.2484211185614033e-03 3.5444478822067442e-04  1.7916483728460664e-03 -1.4700617082637894e-03 -1.1100313971644472e-03  7.2360740592685650e-04 -7.0686723621336627e-04 -6.1764998961598113e-04  2.6669639836054012e-03 2.6494051649791589e-03 1.1904458055297029e-03  2.1664564388819783e-03 2.6275922834964553e-03 1.8480892078082374e-03  0.0000000000000000e+00 0.0000000000000000e+00 0.0000000000000000e+00  2.1769153841181722e-04 -1.3644774695998683e-04 -3.1708207305891200e-04  2.4670656752643102e-03 2.6355319136617253e-03 1.5840198633730400e-03  1.9886906958400835e-03 4.9256949919159873e-03 1.3995533904683705e-03  0.0000000000000000e+00 0.0000000000000000e+00 0.0000000000000000e+00  1.4203024172159049e-03 -1.8532420442002677e-03 -9.5538633525701628e-04  9.0908195181715510e-04 3.3424983400997276e-03 1.5434461580780628e-03  1.7361803871627601e-03 3.8142440519258161e-03 1.4674897389532196e-03  2.7919492841794787e-03 2.6024174484959245e-03 8.4454534783482088e-04  1.0898508004703554e-03 -2.2378431671578026e-03 -8.3662416465110959e-04  0.0000000000000000e+00 0.0000000000000000e+00 0.0000000000000000e+00  1.9785608565953119e-03 2.6770446513494956e-03 1.6873528381138919e-03  2.6873347257230294e-03 2.6475321382581768e-03 1.2654969747057320e-03  5.8844689977115999e-04 -4.3445360697596906e-04 -6.1152034183410546e-04  8.1122571985141096e-05 4.2696647229820123e-04 5.0416748813004195e-04  2.4418819717564109e-03 2.6196483022570554e-03 1.5898448876120793e-03  0.0000000000000000e+00 0.0000000000000000e+00 0.0000000000000000e+00  0.0000000000000000e+00 0.0000000000000000e+00 0.0000000000000000e+00  5.5165276707764372e-04 2.4222871374028048e-03 1.2398406335802461e-03  2.1679999640993324e-03 7.6141148942617280e-04 -9.2166191365223942e-04  1.5934569083046698e-03 -2.9427902520351499e-03 -1.5079201447457456e-03  2.3353077407257607e-03 1.5641563235177357e-03 -5.6334429005011448e-04  2.5605709421032941e-03 2.0079374930757794e-03 -1.0094976655317141e-04  3.2433458261035500e-04 -1.1848196453634270e-04 -4.1629580948735281e-04  1.7799570870848153e-03 2.7180336679893803e-03 1.5575052944545628e-03  0.0000000000000000e+00 0.0000000000000000e+00 0.0000000000000000e+00  1.4728141017886010e-03 -4.2779190622612186e-03 -1.0673020968675730e-03  2.7964380299776658e-03 2.5973350316948482e-03 9.4236712160472623e-04  9.6808673916261724e-04 -1.0184864131981357e-03 -8.8128651574482099e-04  2.6145040980607476e-03 2.6083057659718263e-03 1.3191368559631667e-03  0.0000000000000000e+00 0.0000000000000000e+00 0.0000000000000000e+00  1.4695885050515880e-03 2.7483773080089293e-03 1.3227082692605779e-03  8.5902559346584322e-04 2.8857426088271256e-03 1.2747768715256718e-03  3.8945165878311901e-04 2.5869332904936708e-03 1.2218672629483378e-03  2.0315855201604631e-03 2.5005337098390834e-03 1.4562631638602018e-03  2.0878487509902401e-04 6.6005711473217832e-04 5.3026650224654822e-04  0.0000000000000000e+00 0.0000000000000000e+00 0.0000000000000000e+00  2.7944757908156589e-03 2.5888617805796153e-03 1.0151574873050165e-03  0.0000000000000000e+00 0.0000000000000000e+00 0.0000000000000000e+00  0.0000000000000000e+00 0.0000000000000000e+00 0.0000000000000000e+00  2.8179524462675089e-03 2.3322400857743110e-03 8.0031791691739313e-05  2.5040802835056939e-03 1.7516458151317468e-03 -6.1226151454794962e-04  1.1943966267560268e-03 -3.4120933923027716e-03 -9.4029202792702009e-04  1.8652141716578360e-03 -2.2808254599448839e-04 -1.7444570244674355e-03  1.1159741974088679e-03 -2.7559092329483021e-03 -1.8579180453053745e-03  7.6519264076023853e-04 -3.9741433621474063e-04 -7.3879467022240587e-04  2.8592442949250856e-03 2.5107648620087794e-03 5.7776250399318692e-04  5.0953890374598845e-04 -1.1105993787311310e-04 -5.1148890195894237e-04  0.0000000000000000e+00 0.0000000000000000e+00 0.0000000000000000e+00  1.7091693368684162e-03 2.4065589680872896e-03 1.3153844173783246e-03  0.0000000000000000e+00 0.0000000000000000e+00 0.0000000000000000e+00  1.0672186561793240e-03 -5.0952040663219955e-04 -1.0077162093843602e-03  2.6558271933913042e-03 2.4678841644991171e-03 1.0554419582513646e-03  2.8539724769763935e-03 2.5052848294315594e-03 6.9039566093287940e-04  1.0724372073641119e-03 2.6398407474958791e-03 1.2304660780054451e-03  1.6847381090389342e-04 3.1344850990186517e-04 2.9548845125308091e-04  2.6345649732510395e-03 1.9053076300624874e-03 -5.0591823892015076e-04  4.0084658126195134e-04 1.6676727505432571e-03 8.3624874603134515e-04  2.1967758598876496e-03 9.4500289856463927e-04 -1.1611465799780869e-03  1.9270583234689876e-03 2.6525986231971976e-04 -1.3822498873325420e-03  2.5010549856105007e-03 2.3791029942334457e-03 1.0799132708223164e-03  0.0000000000000000e+00 0.0000000000000000e+00 0.0000000000000000e+00  2.0022651993643814e-03 2.2543306738080325e-03 1.2009096216835569e-03  2.7948897180958879e-03 2.4314399347838511e-03 7.2616125885699705e-04  0.0000000000000000e+00 0.0000000000000000e+00 0.0000000000000000e+00  9.7355016351113356e-04 -2.4593894701892998e-04 -9.2828964011179072e-04  2.3976554353218730e-03 1.4529670930525050e-03 -8.7953799190697724e-04  1.3171027752646573e-03 2.4412591044561949e-03 1.1437869179406804e-03  0.0000000000000000e+00 0.0000000000000000e+00 0.0000000000000000e+00  2.9294636007115944e-03 2.4050059028361609e-03 2.6776101813670301e-04  1.3476648622423792e-03 -5.9951501049949115e-04 -1.1572175929611881e-03  7.5756023667904074e-04 -1.0065105214000300e-04 -7.2674570292927305e-04  1.5157670463967251e-03 -3.1150883426313394e-04 -1.2994828165324445e-03  8.2678925059122071e-04 2.5862051053079237e-03 9.7545564308532714e-04  0.0000000000000000e+00 0.0000000000000000e+00 0.0000000000000000e+00  2.6654530113023401e-03 2.2897510502349993e-03 7.5067543276732937e-04  2.2895378929985643e-03 2.2135448770323621e-03 9.9842484944746086e-04  0.0000000000000000e+00 0.0000000000000000e+00 0.0000000000000000e+00  0.0000000000000000e+00 0.0000000000000000e+00 0.0000000000000000e+00  1.6715192442719547e-03 2.1715335444575149e-03 1.0446026355616039e-03  3.8846781903362307e-04 2.5784020640807980e-03 9.0746396268731610e-04  0.0000000000000000e+00 0.0000000000000000e+00 0.0000000000000000e+00  2.7763027217296314e-03 2.0229825575445210e-03 -4.9874529703929234e-04  1.7732315459719351e-03 3.6896944035197198e-04 -1.3313119544502464e-03  2.0367368030676748e-03 7.8913630861139031e-04 -1.2336992807290793e-03  4.3916175277953649e-04 2.0632224794740273e-03 7.7826912948709569e-04  2.5791806143425633e-03 1.7166956183152604e-03 -7.6627501722333969e-04  3.5453182833268629e-04 4.7922711061485314e-04 2.8491812278781447e-04  2.5003735216256404e-03 2.2226536631115698e-03 8.1681079591797905e-04  4.2284076241623877e-04 1.0836045614246400e-03 5.4677521346470196e-04  2.3433868554202908e-03 1.3440650207136114e-03 -1.0810365656462710e-03  2.8747409918768660e-03 2.2296649240210113e-03 6.3269629412539437e-06  2.0067529858224221e-03 2.0246084041683258e-03 9.0567808659663778e-04  2.7966258609721057e-03 2.2705312253920927e-03 4.0654808027886890e-04  0.0000000000000000e+00 0.0000000000000000e+00 0.0000000000000000e+00  1.0884901725986234e-03 -5.9540114364867764e-05 -1.0701429310762121e-03  4.6244393827567888e-04 2.2604460250028288e-07 -5.7527338253736372e-04  0.0000000000000000e+00 0.0000000000000000e+00 0.0000000000000000e+00  1.5451548491698475e-03 7.1453825757534828e-05 -1.2887861287097736e-03  5.2474036427776235e-04 7.8588991717037709e-04 3.3990306593022890e-04  9.6101707735770921e-04 2.0134702459294017e-03 7.4251635050189002e-04  1.7125264278859266e-03 3.2191225172184377e-04 -1.3298000005802675e-03  0.0000000000000000e+00 0.0000000000000000e+00 0.0000000000000000e+00  8.4566270986874339e-04 -1.0874447542795825e-05 -9.0470968356537646e-04  2.8047622963616099e-03 2.1579272706321912e-03 1.1018284984275840e-04  1.4074499776382658e-03 6.5453775558602865e-05 -1.2068586901685377e-03  8.2834212338694804e-04 1.8168300738106828e-03 6.9931661694964042e-04  1.6924974461396437e-03 1.8538799114606694e-03 7.7476087564658388e-04  2.4803841796926761e-03 1.5007396312665309e-03 -9.7088911450932884e-04  2.2297710873777836e-03 1.1031658297959105e-03 -1.1972984469782195e-03  2.5017470981280421e-03 2.0499040194736614e-03 5.2551104381926711e-04  6.1607404508527447e-04 -6.1041505776293867e-05 -7.5701036535096077e-04  1.3430314886616578e-03 1.7134934468830295e-03 5.9480930973565039e-04  0.0000000000000000e+00 0.0000000000000000e+00 0.0000000000000000e+00  2.8200231489427844e-03 2.0133712189567571e-03 -3.0762973511909176e-04  1.6573933463877159e-03 3.1043103304856075e-04 -1.3268582604292929e-03  3.6341577693201657e-04 1.3664978959088679e-04 -1.8405004077873532e-04  1.1816033525334313e-03 1.4451131469567368e-03 5.1179415940134313e-04  2.7187757649225442e-03 1.8009356869805519e-03 -5.9839658649818927e-04  1.8794323445620986e-03 6.1548885833377653e-04 -1.3210348440677911e-03  2.0690894661409358e-03 1.7230222744256723e-03 4.6468390343440234e-04  2.2877464044660715e-03 1.8087650361352391e-03 3.6502930662490733e-04  9.6874852618078608e-04 1.0848005885073168e-03 3.6737700498717875e-04  8.2376661352692542e-04 6.9380561312876730e-04 1.5811913089831716e-04  5.8300129496961122e-04 3.6986255746474124e-04 -4.8678593720792857e-05  2.3697177574785663e-03 1.3176683211771839e-03 -1.0910102834035072e-03  2.1234315631599261e-03 9.4855869991819746e-04 -1.2875228785942355e-03  2.5803796710246454e-03 1.6059196355854468e-03 -9.2151166174424097e-04  1.8081446382257518e-03 1.5495128880941068e-03 3.8135554066672282e-04  4.0781007639637153e-04 3.3746291586655657e-05 -3.5594873490993339e-04  2.6959362832175552e-03 1.8909661921298433e-03 -2.1136362648059131e-04  5.1983677991191920e-04 8.4136506006713861e-05 -4.3151392545742729e-04  1.7536617050248051e-03 4.5805640745937140e-04 -1.3036481072495134e-03  1.5241034118340969e-03 1.3380879786368206e-03 3.2229159102027926e-04  1.0291313831107137e-03 2.8713728322410212e-05 -3.9781976606847509e-04  9.8587565226294937e-04 6.0504333065247456e-05 -9.6058786180963922e-04  2.0732326289389391e-03 1.5588885928872758e-03 2.0879455779670267e-04  2.3327335963356940e-03 1.6655367730492329e-03 6.4392646023197640e-05  2.5662295762818258e-03 1.7946517352657341e-03 -1.3057974458284874e-04  6.6719577478890272e-04 5.0392753708077688e-05 -7.5239272085248139e-04  1.3292324046763192e-03 1.6340018611310744e-04 -1.1940605706917430e-03  7.4944962287420167e-04 3.1462255743548858e-04 -3.1582533988201006e-04  1.1075307191291742e-03 8.1059563814715404e-04 3.8714800589241903e-05  1.1286888142949183e-03 1.0329869674317585e-04 -1.0452963510949760e-03  9.0489209809606417e-04 4.9257013867363649e-04 -1.7993482785750759e-04  2.4099709521411797e-03 1.3341902581043002e-03 -1.0251533226462721e-03  2.5649861455375109e-03 1.5582675219284136e-03 -7.7808351259403324e-04  1.2849043528303217e-03 1.0655312286217292e-03 1.7598100741470109e-04  9.0018083085757533e-04 5.9666628456184670e-05 -9.0421023833176461e-04  1.5663347703302214e-03 3.3459212403874215e-04 -1.2379499574622491e-03  1.4193137669584498e-03 2.4861225922444724e-04 -1.1571696334283252e-03  1.0776176265105525e-03 1.4578114795477066e-04 -9.6643272310522189e-04  1.6407699029399165e-03 2.4044012906198368e-03 1.0040068149193596e-03  1.1576341985502713e-03 6.0719400588629593e-04 -2.6507905295729419e-04  2.2739355380589220e-03 1.1229150249620523e-03 -1.1085642718890684e-03  2.3918523675841674e-03 1.3009079458056896e-03 -9.0897392431513061e-04  1.6222867886759149e-03 1.0787617032739412e-03 -4.1274669690205666e-05  9.0731771509395067e-04 2.2154247178270188e-04 -6.5146508629530418e-04  2.5081917268651283e-03 1.4756576018449411e-03 -6.9645855972208634e-04  1.8612592724047323e-03 6.1820787501789870e-04 -1.2803551289940398e-03  1.4284850651455558e-03 8.3345495603414168e-04 -1.4073747095111376e-04  1.9279274391888234e-03 1.1380840225866939e-03 -2.4036318402248570e-04  1.2384356793635634e-03 4.0417259198820071e-04 -6.7844389106259972e-04  1.6666586056634433e-03 8.6225566148190596e-04 -3.7237550328183113e-04  2.2657156006120364e-03 1.1791593004372406e-03 -8.3656938693435121e-04  2.1375174893588575e-03 1.2190230340039848e-03 -4.4750915577832938e-04  1.4505696932123411e-03 3.5309301856485046e-04 -1.0790797966850412e-03  2.0902407862944338e-03 1.0502936080197161e-03 -7.1840222625796260e-04  1.8027038984182032e-03 8.4837403508067409e-04 -6.1465706125964331e-04  1.6140922882431517e-03 6.7847917286182279e-04 -6.8424917763587763e-04  2.0095529654063542e-03 8.9295707912160434e-04 -9.6848187167042886e-04  4.8690027655478620e-04 1.0277609392626018e-05 4.1745235489957356e-05  2.0602558217792462e-03 1.6253680698141526e-03 5.4647614553630258e-04  1.7584928963408633e-04 2.0254207754595872e-04 8.8798317603068793e-06  2.2249517728872847e-03 1.2757434089279600e-03 -3.3553658293567721e-04  1.8379981789103715e-03 2.7911364620566057e-03 1.4883937691063003e-03  2.6588785028554564e-03 2.1326221345904523e-03 4.4127013723730714e-04  7.8208750130209098e-04 1.7263249624845172e-03 1.5003065195305903e-03  6.1642290076936962e-04 1.3489128895998682e-03 1.2055083468624794e-03  8.2988026105385688e-04 1.3373744421302301e-03 1.1511563920831040e-03  1.1251365257789992e-03 1.6967087595831680e-03 1.3846224441842055e-03  1.6083838359587607e-04 8.2016113995794529e-05 -3.8121860336784178e-05  3.0717157264721536e-04 7.6625854558382450e-05 -2.5246033430033961e-05  1.3418857358111478e-03 1.2425858407003282e-03 2.4023682964997837e-04  3.9200079780344509e-04 1.3465939170601380e-03 1.0630279329536046e-03  1.7311292661931856e-03 4.1865801978637412e-04 -7.9372809462146230e-04  1.8369619485561956e-03 2.3571327014499481e-03 1.7329938791380006e-03  2.0249217199903398e-03 2.5482382376756565e-03 1.7596979392474565e-03  8.0182451726896575e-04 1.3739105661979057e-03 1.0379405515363418e-03  1.1402894821129000e-03 1.9366861522613079e-03 1.5548096176305256e-03  1.9318373550536031e-03 1.2012802376201999e-03 1.3628403558015313e-04  1.9209156706939232e-03 2.0378661156099415e-03 1.1963819410725236e-03  0.0000000000000000e+00 0.0000000000000000e+00 0.0000000000000000e+00  1.9522477137989436e-03 7.7211987052915748e-04 -1.1198866351183295e-03  9.4164906508634812e-04 1.2849267299083671e-03 1.1143738145712782e-03  2.6670787103106313e-03 2.4449712366162255e-03 6.5534486541535080e-04  1.5372