<?xml version="1.0"?>
<VTKFile type="UnstructuredGrid"  version="0.1"  >
<UnstructuredGrid>
<Piece  NumberOfPoints="600" NumberOfCells="2587">
<Points>
<DataArray  type="Float64"  NumberOfComponents="3"  format="ascii">-0.049151 -0.007804 -0.004823  -0.049151 0.007804 0.004823  -0.04790259406976923 0.001239683006004082 -0.009956012925459262  -0.04793098230285929 6.363167544250274e-05 0.009851369209831233  -0.04805944391332882 -0.008322903244759101 0.004219375566196385  -0.04786680619860946 0.008218644343796168 -0.005945462783549257  -0.04663476580214215 -0.009365629347722821 0.01531220317822907  -0.046709 0.009379999999999999 -0.015177  -0.04590539205244906 -0.007752695598137089 -0.01463013133116827  -0.04582231596126762 -0.01680094137165972 -0.0002315168275560837  -0.045877 0.008153000000000001 0.014626  -0.045046 -0.002284 0.019122  -0.04486234845678985 0.001327104045859624 -0.01953096323341215  -0.044654 -0.01761 0.009686  -0.044654 0.01761 -0.009686  -0.042599 -0.02584 0.004195  -0.042599 -0.007804 -0.024988  -0.042599 0.007804 0.024988  -0.042599 0.02584 -0.004195  -0.0425336923786702 -0.02428929218027723 -0.004072171917105918  -0.042533 -0.022361 -0.01382  -0.042533 0.022361 0.01382  -0.04238682415244291 0.01675564369295764 -0.01788960117370473  -0.04155 -0.017955 0.018656  -0.041471 -0.008366 0.024717  -0.04136349319913134 0.00813871199233143 -0.02485949403158711  -0.03967714040186228 -0.0258983901572066 0.01303149475134728  -0.037441 -0.031264 -0.002905  -0.03732113954780657 -0.01701469825628496 -0.0265245919761908  -0.03685067242239624 0.01748384243867774 -0.02684562858407657  -0.009854336773279149 -0.01384408163627372 -0.01978777176686668  -0.036929 -0.02584 0.021645  -0.036929 -0.007804 0.032792  -0.036929 0.007804 -0.032792  -0.03698846704788515 0.02584 -0.02146198412952453  -0.03576810672064631 -0.03263414503927621 0.007086120583432476  -0.03621056860850631 -0.008537190203393101 -0.03184816671271234  -0.03559475745020937 0.03284606053254825 -0.007053441363397597  -0.033533 0.031693 -0.016478  -0.03292211493494396 -0.001214309522569032 -0.03619171940793735  -0.03243571805057109 0.001224408606282728 0.03662626850077524  -0.031997 -0.036987 -0.010397  -0.031997 -0.02584 -0.028433  -0.031997 0.02584 0.028433  -0.03204115485955803 0.03075729860277714 0.0203928210825896  -0.031997 0.036987 0.010397  -0.03243147332066496 -0.03379671736279824 0.01425268571375688  -0.031608 -0.015082 0.034486  -0.031608 0.0241 -0.028913  -0.02961963933615586 -0.03028066577125982 0.02435081068270409  -0.02886215033698943 -0.03973235697938131 0.009264896059601528  -0.028868 -0.009379999999999999 -0.039733  -0.028868 0.009379999999999999 0.039733  -0.028868 0.039733 -0.009379999999999999  -0.0272080048442554 0.007418556175778055 -0.03987973523180979  -0.026287 -0.022361 0.03618  -0.02627694603556986 0.02236304392813957 -0.03618330823781371  -0.026188 0.032821 -0.025135  -0.02414412446875224 0.03338165421810636 0.02640705597593888  -0.024919 0.03836 0.017476  -0.02412361216801523 -0.02596328311105493 -0.03402877891816361  -0.02439078629365199 0.03846394450892718 -0.01783535271592886  -0.02458938678007193 -0.001356917071046851 -0.04229337251769552  -0.024357 -0.038386 0.018192  -0.02457071597438821 0.00109259960201285 0.04233250386759371  -0.02423 -0.033463 -0.026306  -0.019776 -0.036987 0.027219  -0.019776 -0.007804 0.045255  -0.019776 0.007804 -0.045255  -0.019776 0.036987 -0.027219  -0.019735 -0.008592000000000001 -0.043984  -0.01978806461543882 0.04311702324963859 -0.01208253429178276  -0.01892862770841087 0.008530073841898399 0.04431172963675564  -0.017841 -0.039733 -0.024556  -0.017841 0.039733 0.024556  -0.017531 -0.033463 -0.031173  -0.017497 -0.043183 -0.015065  -0.01770933906190419 0.04346407488954426 0.01391630448492417  -0.01722982027578962 0.03261200382964681 0.03216146684480273  -0.017154 -0.046634 -0.005574  -0.017154 -0.02584 -0.039218  -0.017154 0.02584 0.039218  -0.017154 0.046634 0.005574  -0.016024 0.04109 -0.021666  -0.01494121952274096 5.494991148457967e-05 0.04679907238030961  -0.01512526514718975 -0.0317009568381934 0.03394818247529849  -0.01381587557992425 0.01754731437057834 -0.04344583277283987  -0.01401384807495315 0.03115837349202418 -0.03491509825450116  -0.01387721695689824 -0.01788937852926916 0.04331188078629762  -0.013957 -0.04654 0.004955  -0.01441440998521693 -0.01795873171202407 -0.04310501290094694  -0.01369 0.046634 -0.005087  -0.01009005588036551 -0.04655470403191454 -0.01081058661137365  -0.010602 -0.046634 0.014592  -0.010602 0.007804 0.048236  -0.010602 0.046634 -0.014592  -0.010524 -0.00791 -0.04821  -0.009887999999999999 -0.03836 0.028786  -0.009261790657046021 -0.008539116438300484 0.04731318536605013  -0.009887999999999999 0.03836 -0.028786  -0.009771999999999999 -0.030735 -0.036718  -0.009185581067571447 -0.02585217748927433 0.04179506046613823  -0.009174 0.02584 -0.041811  -0.009108 0.008654 -0.047336  -0.008921 -0.043183 -0.021296  -0.008937075752852673 0.04310480187608008 0.02141776686200119  -0.008577 0.048317 0.002787  -0.008299406214355463 0.03823942999888234 0.02941739850850579  -0.008463174279235021 0.0312599477088679 0.03656675890254371  -0.004783583210573968 0.03242585507318451 -0.03636965250607311  -0.005301 -0.043183 0.022472  -0.005301 -0.015082 -0.046479  -0.005301 0.048317 -0.007296  -0.005211 -0.000665 0.048668  -0.004439314452187551 0.04275226375062801 -0.02342997776998131  -0.004364152694500316 -0.01681945334952561 0.04576367687154725  -0.004831654088850597 0.01806404578336494 -0.04525963097092563  0.0007022698444801325 -0.04663540093736477 0.014444250464636  0 -0.05 0  0 -0.046634 -0.018036  0 -0.039733 0.030353  0 -0.036987 -0.033644  3.125325765250436e-06 -0.02245740950567151 -0.04464746425536401  0 -0.009379999999999999 0.049112  8.325710264163455e-05 -0.008148269180658354 -0.04815287118430898  -1.867729409312596e-05 0.009229289177948156 -0.04910428056285188  0 0.022361 0.044721  0 0.036987 0.033644  -0.001218025573793352 0.04653770829286376 -0.01481187277953063  0 0.046634 0.018036  0 0.05 0  0.00016 0.039693 -0.030345  -0.0008018054486786524 0.008158689946443008 0.04815074925823663  0.003657154072143134 0.03372747038535494 -0.03530604672821342  0.004587 0.01761 -0.045461  0.005452665192909564 -0.04306588633302541 0.02260952214587862  0.005005204357090245 0.0008181317909628782 -0.048675536048003  0.005301 0.043183 -0.022472  0.005356737186059587 -0.0177743034181618 0.04523896415525235  0.004604139298720805 -0.001630259667997099 0.04871740803644251  0.005934 -0.048143 0.007778  0.008325373550506426 -0.03154382128886014 -0.03637482269702176  0.008418946271403974 0.03163034608668942 0.03626181934309521  0.009526490850063286 -0.04299130408349978 -0.02139731883443462  0.008921 0.043183 0.021296  0.007390093158185135 0.04652853192103715 0.01290636599637836  0.009258243160547136 -0.02592657349427958 0.04169671787997016  0.009174 0.02584 -0.041811  0.01026718864631555 -0.03835289042056216 0.02858588547782126  0.009340873701426543 -0.008635601893535183 0.04729068077504547  0.009463904584300409 0.008625797247933989 -0.04726669174367604  0.009887999999999999 0.03836 -0.028786  0.010205 0.038558 0.028446  0.010602 -0.046634 0.014592  0.010602 -0.007804 -0.048236  0.010602 0.007804 0.048236  0.010602 0.046634 -0.014592  0.01414677769719092 0.0318539497135082 -0.0341630215081841  0.013603 0.046634 -0.005355  0.01391051592501494 -0.04668741774661421 0.003573146715528378  0.01422484107797216 -0.01720313510422107 -0.04341353717834465  0.01485224578135476 -0.01633235231710342 0.04353414016723415  0.0144968589055904 -0.03131222079577271 0.03458837952923594  0.014528 0.016731 -0.04355  0.014922 8e-06 -0.046798  0.015189 -0.041811 0.020905  0.017154 -0.046634 -0.005574  0.017154 -0.02584 -0.039218  0.01705876107071777 0.02582067905596933 0.03924855818274277  0.017154 0.046634 0.005574  0.01738746518387923 0.04333175481357129 0.01472441488755569  0.01761304203742924 -0.04317985484577645 -0.01489273207995775  0.01749630283838834 0.03277287993668752 0.03190190055911094  0.01749060704344387 -0.03247092055286038 -0.03221369942065879  0.01709808427851989 -0.02422851020983817 0.03920297974189902  0.017841 -0.039733 -0.024556  0.017841 0.039733 0.024556  0.019081 0.008701 0.044232  0.019776 -0.036987 0.027219  0.019776 -0.007804 0.045255  0.019776 0.007804 -0.045255  0.019776 0.036987 -0.027219  0.01984457145726764 0.02343263912858476 -0.03840346129995038  0.020757 -0.008441000000000001 -0.043527  0.021255 0.042603 -0.011565  0.02326500512967002 -0.03449493766125505 -0.02585072328517351  0.02311561260340114 -0.04308314437441599 0.001894828765536271  0.02342033427345287 0.0429172488223377 -0.002607221098998199  0.023032 0.015738 -0.040431  0.02393314295168048 0.02780495823288194 -0.03274152810400158  0.02391781571702157 -0.0004850960474568912 0.04270695868223139  0.02444650634997888 0.03845486278270692 -0.01787816461116968  0.02407816744596627 -0.0420757835121373 -0.007993899359976088  0.0245169098150132 -0.03825302755043918 0.01820190045268769  0.02397081128374749 0.03344144744628375 0.02651667316646513  0.02473617762546164 0.03848962882748188 0.01738723612331032  0.026287 -0.022361 0.03618  0.026287 0.022361 -0.03618  0.028868 -0.039733 0.009379999999999999  0.028868 -0.009379999999999999 -0.039733  0.028868 0.009379999999999999 0.039733  0.028868 0.039733 -0.009379999999999999  0.03016272807208971 -0.01750825197137169 -0.03433427889389375  0.030433 -0.03836 -0.000508  0.03024301398342013 0.01765850847321108 0.03419443578158489  0.030433 0.03836 0.000508  0.03110964385069723 -0.02964592189950172 0.0234946851528421  0.031608 -0.0241 0.028913  0.031997 -0.036987 -0.010397  0.03187333779920321 -0.03140879529697282 -0.01958590477441702  0.031997 -0.02584 -0.028433  0.03174617131418277 0.03099621955035622 0.02041782496596811  0.03199675358399435 0.03698721632300239 0.01039544193869576  0.032015 0.025834 0.028408  0.03336730784915034 -0.03197213564945888 0.01623494159345271  0.032899 -0.000
[...]
<PointData  Vectors="Displacement"> 
<DataArray  type="Float64"  Name="Displacement"  NumberOfComponents="3" format="ascii">-4.9413763369757294e-03 4.7811633089492329e-05 -8.3315592472562247e-03  -5.2993287002488605e-03 1.5937459203024279e-03 -8.6942910623500538e-03  -4.7320826460143395e-03 7.7309118292951729e-04 -7.6938158120881950e-03  -5.4532554212834905e-03 1.0301321294347758e-03 -9.0569983191832199e-03  -5.5290557028128216e-03 5.3219625971414541e-05 -8.6422075740291288e-03  -4.7932107573049791e-03 1.4251063097559195e-03 -7.8059374211348811e-03  -5.4259971010111561e-03 4.3301828966219959e-05 -9.8407961882748182e-03  -4.0549591458627606e-03 1.3623956286130808e-03 -6.9285250539118061e-03  -4.1155950781515379e-03 -1.0030226704692035e-04 -7.2564857018554080e-03  -5.1297374138473814e-03 -6.3188187391168590e-04 -8.5174623382178287e-03  -5.1545851359246515e-03 1.7171514733578571e-03 -9.5035902357473185e-03  -5.3048633863933756e-03 7.1171295550532816e-04 -1.0082830736247488e-02  -3.4635342291663936e-03 3.1624521863978482e-04 -5.6815718814186575e-03  -5.4358054069209155e-03 -8.7090698901058118e-04 -9.0913626591818692e-03  -4.2417418945022651e-03 2.2137292263376346e-03 -7.4934019251382752e-03  -4.7858428216422094e-03 -1.4525916644135947e-03 -8.8676309875746848e-03  -2.3974902074850196e-03 2.4147347005367128e-04 -5.2725475534556067e-03  -5.0832636462111534e-03 1.7650626796974407e-03 -1.0589528128001294e-02  -4.3288477917999358e-03 2.9376259569768863e-03 -8.1008422484034250e-03  -4.6681418615101278e-03 -1.4783326177329524e-03 -8.2427729890253518e-03  -3.7543071795254753e-03 -1.3544384749284799e-03 -7.2396128315742776e-03  -4.6507299423432453e-03 2.8122330056714216e-03 -9.2980589737324433e-03  -3.5415249069072046e-03 1.9572627551653048e-03 -6.5240966100784384e-03  -5.1141477684014704e-03 -9.9087847760655299e-04 -1.0344047677385481e-02  -5.3532028924322909e-03 1.0901124227024937e-04 -1.1347346236169736e-02  -2.8152746252793326e-03 8.8703734794035396e-04 -3.8637083593816854e-03  -5.0807643549152211e-03 -1.7956238235637616e-03 -9.5270243428402721e-03  -4.3153027226011968e-03 -2.1642398040530300e-03 -8.2964523219659012e-03  -1.7774510648402113e-03 -6.2809205954514964e-04 -4.1036736310088168e-03  -2.2616637347785138e-03 1.2815863137435339e-03 -4.4675370978540553e-03  -8.5657518479771017e-04 -5.1309180067736178e-04 -3.1586657964670722e-03  -4.8506307227023744e-03 -1.5391351603755827e-03 -1.0347475290952668e-02  -4.4081748462001837e-03 1.6246354859736071e-04 -1.3534281301916277e-02  0.0000000000000000e+00 0.0000000000000000e+00 0.0000000000000000e+00  -2.8403529528008356e-03 2.3336216299827978e-03 -6.4173636270204604e-03  -4.3672042991656336e-03 -2.2885815267737223e-03 -9.0355697602935211e-03  0.0000000000000000e+00 0.0000000000000000e+00 0.0000000000000000e+00  -3.7476844149622883e-03 3.4727737257734923e-03 -7.8073475372232295e-03  -2.8753740855298336e-03 2.8311262840736168e-03 -6.9248899598836110e-03  0.0000000000000000e+00 0.0000000000000000e+00 0.0000000000000000e+00  -3.7078724392534809e-03 8.4412594259066626e-04 -1.5005051663250068e-02  -3.3499274298668239e-03 -2.4751402073436243e-03 -7.4814184237340809e-03  -1.2642207462332782e-03 -7.0037173992987169e-04 -4.5557293960501203e-03  -3.6793268288736239e-03 3.0452900533023846e-03 -1.0687330615688861e-02  -4.1617058149169273e-03 3.5354503292940463e-03 -9.7772381689350801e-03  -3.8692721542928177e-03 4.0801800402302697e-03 -9.1879013239936497e-03  -4.3956693083533954e-03 -2.5220729591542402e-03 -9.4016625297206613e-03  -4.0127766624489195e-03 -3.7401933461875166e-04 -1.4796096752313356e-02  -1.8530674498331730e-03 1.3096217547219676e-03 -4.0311132224857106e-03  -4.2617653241075323e-03 -2.1295144614783129e-03 -1.1200949711867471e-02  -3.7688735836138433e-03 -2.9466241825513023e-03 -8.9556482772046361e-03  0.0000000000000000e+00 0.0000000000000000e+00 0.0000000000000000e+00  -3.1929470116468859e-03 1.2996067131618935e-03 -1.5554116146851977e-02  -2.8974887898095391e-03 3.8013635135803925e-03 -8.1038375441577996e-03  0.0000000000000000e+00 0.0000000000000000e+00 0.0000000000000000e+00  -3.5255554525338829e-03 -9.1615577433704846e-04 -1.5348205573865608e-02  0.0000000000000000e+00 0.0000000000000000e+00 0.0000000000000000e+00  -1.6214580614848676e-03 2.2352113737178639e-03 -5.6233952553201919e-03  -3.4182294644249833e-03 3.6109477067982078e-03 -1.1743481582075910e-02  -3.5231362697616224e-03 4.4535362470852604e-03 -9.8647382990665854e-03  0.0000000000000000e+00 0.0000000000000000e+00 0.0000000000000000e+00  -2.2292603601875710e-03 3.2554911971825729e-03 -7.0085985081264710e-03  0.0000000000000000e+00 0.0000000000000000e+00 0.0000000000000000e+00  -3.6499289946250336e-03 -2.9780745283295011e-03 -9.8525150543452462e-03  -2.8590598550137930e-03 7.0567200722660426e-04 -1.8047498177854990e-02  -1.6281559044363017e-03 -1.6482483559090092e-03 -3.7631782600910223e-03  -3.1899209866830549e-03 -2.7037000591333534e-03 -1.1417726382312294e-02  -2.6273373053438179e-03 1.5720218461029781e-04 -1.9896446791951912e-02  0.0000000000000000e+00 0.0000000000000000e+00 0.0000000000000000e+00  -9.4567476519512447e-04 2.3783796219189594e-03 -5.2648601850932729e-03  0.0000000000000000e+00 0.0000000000000000e+00 0.0000000000000000e+00  -2.2367358259145946e-03 4.0737612022345472e-03 -7.4904938811566841e-03  -2.1555143480658707e-03 1.2405794506246174e-03 -1.8668371326447580e-02  -1.2518713965211431e-03 -2.4083975073369481e-03 -3.9678276236743207e-03  -2.8811115060755847e-03 4.4342715450360103e-03 -1.1167333748021844e-02  0.0000000000000000e+00 0.0000000000000000e+00 0.0000000000000000e+00  -1.8932691102997036e-03 -3.0874701900601462e-03 -5.5830204520451523e-03  -2.7533493205160148e-03 4.9182351360745891e-03 -9.7588461343331712e-03  -2.6463322111520619e-03 3.7250848032985171e-03 -1.4023377953507428e-02  -1.9701082123445911e-03 -3.6969067142662558e-03 -6.9295656102522241e-03  0.0000000000000000e+00 0.0000000000000000e+00 0.0000000000000000e+00  -2.2054604391077873e-03 2.8543673914776906e-03 -1.6298715423637578e-02  -2.4550328698603476e-03 4.7659243404705003e-03 -9.0657988687261465e-03  -1.3402991458464049e-03 3.0344177647558166e-03 -6.1526214293513692e-03  -2.3073215283316889e-03 6.0522284084794464e-04 -2.0253040678213523e-02  -2.8440223322434731e-03 -1.8318541955522254e-03 -1.4600633259569781e-02  0.0000000000000000e+00 0.0000000000000000e+00 0.0000000000000000e+00  0.0000000000000000e+00 0.0000000000000000e+00 0.0000000000000000e+00  -2.5357780232920335e-03 -2.9130135743225902e-04 -1.9209594037463328e-02  -2.2445795575217215e-03 -3.7729933291908166e-03 -7.6565725708995346e-03  0.0000000000000000e+00 0.0000000000000000e+00 0.0000000000000000e+00  -1.8480544925333563e-03 4.5679810412791594e-03 -8.2209252920158061e-03  -1.2515447644139818e-03 -3.7155973292703585e-03 -6.0848418714204849e-03  -1.9213716572708494e-03 -3.9004795823284590e-03 -8.7729384516502078e-03  -1.9153533592974326e-03 1.1710897350593603e-03 -2.0560496699051911e-02  -1.3433246572765332e-03 4.0481609069915499e-03 -7.0645973557934526e-03  0.0000000000000000e+00 0.0000000000000000e+00 0.0000000000000000e+00  -2.3184493868347190e-03 -2.6572743225366144e-03 -1.1772459726557933e-02  -2.1661854205851168e-03 2.2102434146587056e-04 -2.0658932018569297e-02  -4.0053307595727927e-04 1.9365218941263757e-03 -3.3763154627164879e-03  0.0000000000000000e+00 0.0000000000000000e+00 0.0000000000000000e+00  -2.3734414706117952e-03 -7.0481751469284330e-04 -1.8140010468477616e-02  0.0000000000000000e+00 0.0000000000000000e+00 0.0000000000000000e+00  0.0000000000000000e+00 0.0000000000000000e+00 0.0000000000000000e+00  -7.8651440723352326e-04 -2.6926366943913304e-03 -3.6881343220293932e-03  -1.9437426001150384e-03 4.9710142869452637e-03 -1.0898546051026340e-02  -1.6773010744402061e-03 5.0100374295215765e-03 -8.7941917851405375e-03  -1.8895527404293446e-03 4.4095963022997833e-03 -1.3389126754846187e-02  -1.8220613718724424e-03 3.4877701337765478e-03 -1.6423436093770387e-02  0.0000000000000000e+00 0.0000000000000000e+00 0.0000000000000000e+00  -1.6817654264012145e-03 -3.2449937721267734e-03 -9.7842369299691936e-03  0.0000000000000000e+00 0.0000000000000000e+00 0.0000000000000000e+00  -9.1865696114893996e-04 4.5260331994229777e-03 -7.6096878116279154e-03  -1.8230434519809452e-03 6.3921644818981172e-04 -2.0992127881795646e-02  -7.1896325022683793e-04 2.8782815400409780e-03 -4.0064362386628850e-03  -2.0513426663224710e-03 -1.9771988940778360e-04 -2.0100653717857079e-02  0.0000000000000000e+00 0.0000000000000000e+00 0.0000000000000000e+00  -9.2418568894661547e-04 -3.8719707711815359e-03 -8.2681845233059329e-03  -4.8461964756825801e-04 -3.8865826603511353e-03 -7.2011102491061785e-03  -7.1467943789029674e-05 -3.4425496117646026e-03 -5.2236678412559872e-03  -1.3367798388486225e-03 -2.4813697833668854e-03 -1.1627432548893630e-02  0.0000000000000000e+00 0.0000000000000000e+00 0.0000000000000000e+00  0.0000000000000000e+00 0.0000000000000000e+00 0.0000000000000000e+00  -1.8534519496890296e-03 2.2369951767908515e-04 -2.0935709079792839e-02  0.0000000000000000e+00 0.0000000000000000e+00 0.0000000000000000e+00  0.0000000000000000e+00 0.0000000000000000e+00 0.0000000000000000e+00  -1.5503104945211300e-03 2.4600412025927742e-03 -1.9598168422797414e-02  -1.2931761558896836e-03 4.0667328263090741e-03 -1.4332288941433772e-02  -3.2086028369736179e-04 4.1021358381968919e-03 -6.4049466069570774e-03  -8.0297075331825572e-04 5.1913789404181773e-03 -1.0277202411818063e-02  -5.0230417939657178e-04 4.8714094091555568e-03 -8.3022758375973591e-03  0.0000000000000000e+00 0.0000000000000000e+00 0.0000000000000000e+00  -1.6173847189503144e-03 1.3442521708907061e-03 -2.0790931519935153e-02  0.0000000000000000e+00 0.0000000000000000e+00 0.0000000000000000e+00  0.0000000000000000e+00 0.0000000000000000e+00 0.0000000000000000e+00  -6.2452294534770417e-04 -3.1200419866693288e-03 -9.7761131038166475e-03  0.0000000000000000e+00 0.0000000000000000e+00 0.0000000000000000e+00  7.4879276820278380e-04 2.7591136627681421e-03 -4.6898015538520462e-03  -1.5962832157717737e-03 -1.2150778717156831e-04 -1.9614205877892480e-02  -1.5160084323137979e-03 7.8710525089851395e-04 -2.0981109992836654e-02  -1.8371817515602931e-04 -3.8695933991372152e-03 -7.5088966785400394e-03  0.0000000000000000e+00 0.0000000000000000e+00 0.0000000000000000e+00  -7.8478884602338765e-04 3.2397722375947405e-03 -1.5537130507020431e-02  2.9511942229560917e-04 -2.8202847069565195e-03 -4.6714600448673751e-03  -6.1852626312038504e-05 4.8286218566232532e-03 -1.0473559432956726e-02  -1.5762217124430184e-04 5.0011832453610476e-03 -9.2689096666474305e-03  -1.3408479372649673e-03 -5.4392622133973183e-04 -1.7623057314519946e-02  0.0000000000000000e+00 0.0000000000000000e+00 0.0000000000000000e+00  -4.2639505490419088e-04 -2.4713003801338841e-03 -1.0887562067555690e-02  -1.4038591092526713e-03 5.5593071427325843e-04 -2.0313874703820057e-02  0.0000000000000000e+00 0.0000000000000000e+00 0.0000000000000000e+00  3.1711788788399669e-04 1.7799844807253253e-03 -2.7488284261264566e-03  -3.2589029549439134e-04 4.2649690519767688e-03 -1.1911480586829327e-02  1.8796802531718365e-04 -3.7215845784946719e-03 -7.9953901107640089e-03  0.0000000000000000e+00 0.0000000000000000e+00 0.0000000000000000e+00  -1.2946708173015098e-03 1.2347133248578820e-03 -2.0482686481117167e-02  8.6795112860705735e-04 4.1088210914338444e-03 -6.5682906586314498e-03  0.0000000000000000e+00 0.0000000000000000e+00 0.0000000000000000e+00  9.1299329312224996e-04 4.3994807116451047e-03 -7.3465043548091719e-03  5.7985133873311170e-04 -3.7187399281377988e-03 -7.0441964838031312e-03  0.0000000000000000e+00 0.0000000000000000e+00 0.0000000000000000e+00  -1.0612736370209589e-03 1.3916732425294813e-04 -1.8431161526482869e-02  -3.8617128473083568e-04 -1.3711023945143939e-03 -1.3400732646518563e-02  0.0000000000000000e+00 0.0000000000000000e+00 0.0000000000000000e+00  0.0000000000000000e+00 0.0000000000000000e+00 0.0000000000000000e+00  3.1384704244414024e-04 -3.0663802637107542e-03 -8.8838931417814914e-03  1.0415193075212900e-03 -3.5707569474507542e-03 -6.3887100121101650e-03  0.0000000000000000e+00 0.0000000000000000e+00 0.0000000000000000e+00  -7.4089916897776618e-04 2.3657141733184062e-03 -1.5817495890950651e-02  1.0854291361522194e-03 4.6900348173950172e-03 -8.2283199611940146e-03  8.7453710405545522e-04 4.6932842485117830e-03 -9.1538717327390873e-03  9.1496082277646386e-04 -2.9095940812312775e-03 -5.4665135025565503e-03  6.6967400686110713e-05 3.5257213713083759e-03 -1.2563464631569559e-02  0.0000000000000000e+00 0.0000000000000000e+00 0.0000000000000000e+00  -5.4300577648050787e-04 -5.2284908386709798e-04 -1.6183277932248392e-02  5.7679749927093686e-04 -2.3413363805306888e-03 -4.0360477232313941e-03  5.2170706377569593e-04 4.1849568494936908e-03 -1.0214944301345738e-02  -7.4655217854146659e-04 1.1729236066860486e-03 -1.8829305409249149e-02  4.6547850800507048e-04 -2.3163867831464220e-03 -9.9266414421578224e-03  -8.9240542497396073e-04 6.1560774619666132e-04 -1.9050653307428438e-02  0.0000000000000000e+00 0.0000000000000000e+00 0.0000000000000000e+00  5.9058245434032511e-04 1.6630212441031409e-03 -3.7246808554913025e-03  0.0000000000000000e+00 0.0000000000000000e+00 0.0000000000000000e+00  0.0000000000000000e+00 0.0000000000000000e+00 0.0000000000000000e+00  1.5176960951818975e-03 3.6796804254027753e-03 -6.5471120319176403e-03  1.1329232011492855e-03 -1.7502998672240802e-03 -3.1648134147250206e-03  1.4617240108034076e-03 -3.4749854083823981e-03 -7.0735666331859150e-03  1.7732133940106302e-03 4.1394284713408029e-03 -7.3382678102555778e-03  0.0000000000000000e+00 0.0000000000000000e+00 0.0000000000000000e+00  0.0000000000000000e+00 0.0000000000000000e+00 0.0000000000000000e+00  -3.6787475061465888e-04 8.3925088245349660e-04 -1.8006575837717611e-02  1.7296505303347688e-03 3.0282467860940944e-03 -5.7859115652772204e-03  1.6869360011684143e-03 -3.2830819694284787e-03 -6.3985083644643092e-03  1.3107454314467977e-03 -2.9175584221234588e-03 -8.7264339096425874e-03  9.2331124237966420e-04 3.5055069775056097e-03 -1.0473301397445628e-02  1.4041843019836138e-03 4.2302601202205215e-03 -8.8206712595675051e-03  4.7372741449923703e-04 -7.6704869855925622e-04 -1.4323597266087437e-02  0.0000000000000000e+00 0.0000000000000000e+00 0.0000000000000000e+00  1.8833862073297557e-03 -3.0276136570533537e-03 -7.6519832620013783e-03  0.0000000000000000e+00 0.0000000000000000e+00 0.0000000000000000e+00  1.3923482010016317e-04 1.1780751718958955e-03 -1.6249526835442205e-02  2.0621888372122960e-03 3.4561470254200958e-03 -6.8981230393805812e-03  0.0000000000000000e+00 0.0000000000000000e+00 0.0000000000000000e+00  2.0793486896920192e-03 -2.9795713110735145e-03 -6.9074000720870917e-03  7.5552771765165141e-04 2.1197913585127193e-03 -1.3193402041989459e-02  2.3128703402213184e-03 3.8132710546167933e-03 -7.4717619316535247e-03  1.7190328169977842e-03 -2.0928211650701185e-03 -9.5637573298686142e-03  1.4134351380961658e-03 -1.3772138166200662e-03 -1.1097238412812731e-02  2.1546674368484947e-03 -2.5995595880664111e-03 -6.3036479483969078e-03  1.9637319477118203e-03 -1.7875510754004017e-03 -4.9027041977861511e-03  8.5380600477099190e-04 -7.1386726522258649e-04 -3.1874858025187406e-03  1.8907541242793285e-03 3.3704517750254631e-03 -8.8602317607907183e-03  2.0961243716667048e-03 3.7830382924541090e-03 -8.0527283927354174e-03  1.3513285288301224e-03 2.8741759699503354e-03 -1.0077932671828447e-02  2.1487706613624617e-03 -2.2434882817569321e-03 -8.2596242192021340e-03  0.0000000000000000e+00 0.0000000000000000e+00 0.0000000000000000e+00  1.0296185359046448e-03 7.7564098052712832e-04 -1.4575236337023937e-02  0.0000000000000000e+00 0.0000000000000000e+00 0.0000000000000000e+00  2.6343881423197641e-03 3.0641463625297976e-03 -6.7930869387536844e-03  2.5683169440203981e-03 -2.5945213413028066e-03 -7.5780175277266422e-03  5.6865452734568733e-04 9.7521913443410896e-04 -2.0928347846955082e-03  1.8727448610238683e-03 9.8697661212063768e-04 -3.3336113809289600e-03  2.2588088610707847e-03 -1.5874924531718644e-03 -8.9215227733760293e-03  2.0553923513443105e-03 -7.4038667627459036e-04 -1.0789210777911283e-02  1.5563499361359596e-03 1.2840772521919636e-04 -1.2703612940948907e-02  0.0000000000000000e+00 0.0000000000000000e+00 0.0000000000000000e+00  2.4874957658066609e-03 1.9465451753993186e-03 -5.3232821770962226e-03  1.2304989731780939e-03 -7.1737045022070474e-04 -3.5921087213573741e-03  2.5713887406134065e-03 -1.9782339201548063e-03 -6.0115944539949418e-03  2.1261224834944123e-03 1.2547604701574888e-03 -4.0515734141518493e-03  1.8182986157201078e-03 -1.1091883414253597e-03 -4.9257751388609092e-03  2.3088598851526967e-03 2.8098131224206829e-03 -8.9125765885310088e-03  1.9329253023010237e-03 2.2569978852682963e-03 -1.0301589835016606e-02  2.6605449340556422e-03 -2.2929347822634597e-03 -6.7267744156473885e-03  1.4002179869265581e-03 7.4861719928551824e-04 -2.3618323771671334e-03  2.8164852084430485e-03 2.3450770609470986e-03 -5.9596764531793115e-03  2.9900519522236386e-03 1.8016675502997969e-03 -5.1324286699251150e-03  2.3068092665500519e-03 8.2565112820937481e-04 -3.4925643098851437e-03  -1.2832710335487021e-03 -2.0929610741940406e-03 -8.7120383447061734e-03  2.7660064878545754e-03 -1.3222458128426724e-03 -6.0962484338518792e-03  2.8445888932082108e-03 2.5974321655961542e-03 -8.2319293604749839e-03  2.7033489064341395e-03 2.0546335004130445e-03 -8.7011600772079582e-03  3.2031007109000835e-03 -1.8184317305930805e-03 -7.1047896165987454e-03  1.9630271885014761e-03 -4.8971021795994640e-04 -4.5252542440725029e-03  2.5135758566926327e-03 1.5030414766244514e-03 -9.7080652997931210e-03  3.2016469550749205e-03 2.5552895234881310e-03 -6.7259525311783612e-03  3.1586734833096266e-03 -1.5213266868386475e-03 -6.6199598905937965e-03  3.4720768941902034e-03 -1.0685856749907958e-03 -7.4149205975079895e-03  2.9329032631695362e-03 -3.3195191877993471e-04 -5.5610166337717289e-03  3.3303656081569355e-03 -9.3221530324270180e-04 -6.8513747886499339e-03  3.2943272079560414e-03 1.4073594735073934e-03 -8.1515160821587825e-03  3.4254669514137627e-03 -7.7729849863561660e-05 -8.0708509371684202e-03  3.4178591936799476e-03 1.0261589374563830e-03 -5.6367698468421466e-03  3.7275483971458468e-03 6.0442653209839489e-04 -7.6456526813236817e-03  3.6441656914163625e-03 -2.5050041718889028e-04 -7.1022326109463152e-03  3.7155654380925406e-03 -3.6610687094873733e-04 -6.8068694775875807e-03  3.8225019079003702e-03 1.0487616065239468e-03 -7.4073769763375432e-03  -3.0576412203234338e-03 3.1428117492170574e-03 -5.4999878186598261e-03  -3.3066107227748120e-03 3.2668099237456319e-03 -1.3657992639843327e-02  -1.1704583656160288e-04 3.1785666591492821e-05 -1.1136649455211884e-03  3.3479420285388874e-03 5.8444126760174751e-04 -9.5295604166098970e-03  -1.9382453098887704e-03 -2.8441349026505523e-03 -1.0793942521848831e-02  -3.5112933512992456e-04 5.7727998935481442e-04 -1.8303854261260445e-02  -5.3077963618290980e-03 -4.3206034482781294e-05 -8.0020750683844587e-03  -4.8674069757243671e-03 4.2118623756019969e-04 -6.8266169602942102e-03  -4.9450997360668426e-03 1.4390074400023444e-03 -7.7803835953275165e-03  -5.3053838792943659e-03 1.2333352506783603e-03 -8.9697616942676413e-03  -1.5928548970235674e-04 1.5001866733380936e-04 -1.0762474916750594e-03  9.2912655007034066e-05 7.0685410404771695e-05 -8.9666426738822856e-04  2.5059450324990519e-03 -2.3806707135079789e-03 -5.9301561756352596e-03  -3.1786175390744269e-03 -1.0329180272591733e-03 -4.9509766227304134e-03  2.9691235425529168e-03 2.4506215034018636e-03 -5.5496430920657465e-03  -4.5843590219508974e-03 1.1277846542136751e-04 -1.4066241929253537e-02  -3.4539502283154203e-03 -1.0233158752052133e-03 -1.5743732595967598e-02  -4.6437510990491879e-03 8.2755385697171502e-04 -7.2820124615197270e-03  -5.3408266921435585e-03 2.2807685838938192e-04 -9.6068415993237118e-03  1.6961691487104283e-03 4.1240275012214937e-04 -9.1144991445756170e-03  -4.3922277319253826e-03 2.58